LAMMPS (10 Mar 2016)
KOKKOS mode is enabled (../kokkos.cpp:36)
  using 1 GPU(s)
  using 0 OpenMP thread(s) per MPI task
package kokkos
# bulk Si via Tersoff

include pak.kokkos
package kokkos neigh half/thread
newton on

units		metal
atom_style	atomic

lattice		diamond 5.431
Lattice spacing in x,y,z = 5.431 5.431 5.431
region		box block 0 20 0 20 0 10
create_box	1 box
Created orthogonal box = (0 0 0) to (108.62 108.62 54.31)
  1 by 1 by 1 MPI processor grid
create_atoms	1 box
Created 32000 atoms

pair_style	tersoff
pair_coeff	* * Si.tersoff Si
mass            1 28.06

velocity	all create 1000.0 376847 loop geom

neighbor	1.0 bin
neigh_modify    delay 5 every 1

fix		1 all nve

timestep	0.001

thermo          100
run		1000000
Neighbor list info ...
  1 neighbor list requests
  update every 1 steps, delay 5 steps, check yes
  max neighbors/atom: 2000, page size: 100000
  master list distance cutoff = 4.2
  ghost atom cutoff = 4.2
  binsize = 2.1 -> bins = 52 52 26
Memory usage per processor = 6.67195 Mbytes
Step Temp E_pair E_mol TotEng Press 
       0         1000   -148173.19            0   -144036.99    7019.4434 
     100    430.57813   -145815.61            0   -144034.65   -14550.734 
     200      543.501   -146282.54            0   -144034.51   -2111.5779 
     300    494.98013   -146081.58            0   -144034.24   -3957.8059 
     400    497.19992    -146090.7            0   -144034.18   -3083.4992 
     500    477.91609   -146010.87            0   -144034.11   -3175.9467 
     600    468.79521   -145973.16            0   -144034.13   -4943.1478 
     700     497.7616   -146093.01            0   -144034.17   -2378.2847 
     800    489.26324   -146057.87            0   -144034.18   -3813.5563 
     900     489.0544      -146057            0   -144034.17   -3244.6261 
    1000    483.16088   -146032.63            0   -144034.18   -3974.0969 
    1100    489.06704   -146057.05            0   -144034.17   -3233.5411 
    1200    487.15391   -146049.15            0   -144034.18   -3356.6846 
    1300    490.20995   -146061.79            0   -144034.19   -3634.0824 
    1400    487.19702   -146049.33            0   -144034.19   -3698.2674 
    1500    489.97716   -146060.84            0    -144034.2   -3455.2507 
    1600    488.02115   -146052.73            0   -144034.18   -3335.4511 
    1700    487.05984   -146048.76            0   -144034.19   -3553.2842 
    1800     487.8753   -146052.12            0   -144034.17   -3299.2701 
    1900    486.02989   -146044.48            0   -144034.17   -3403.0451 
    2000    486.69891   -146047.27            0   -144034.18   -3536.2282 
    2100    489.35661   -146058.24            0   -144034.17   -3076.6528 
    2200    484.30585   -146037.36            0   -144034.17   -3570.2059 
    2300    488.85586   -146056.17            0   -144034.17   -3073.9885 
    2400    485.30488   -146041.49            0   -144034.18    -3469.274 
    2500    488.50345   -146054.73            0   -144034.18   -3276.2312 
    2600    490.19687   -146061.74            0   -144034.19   -3113.2766 
    2700    482.64121   -146030.47            0   -144034.17   -3611.4725 
    2800    488.75341   -146055.76            0   -144034.18   -3134.0511 
    2900    485.96652   -146044.23            0   -144034.17   -3394.2211 
    3000    491.12228   -146065.58            0    -144034.2   -3580.3742 
    3100      489.521   -146058.95            0    -144034.2   -3301.5774 
    3200    486.52458   -146046.55            0   -144034.18   -3325.7713 
    3300    489.35117   -146058.24            0   -144034.18     -3262.69 
    3400     484.8997   -146039.82            0   -144034.18   -3540.9199 
    3500    489.71397   -146059.73            0   -144034.18   -3031.2783 
    3600    486.88893   -146048.05            0   -144034.19   -3426.0542 
    3700    488.07523   -146052.96            0   -144034.18   -3390.3751 
    3800    487.99919   -146052.64            0   -144034.18   -2971.6364 
    3900    486.35355   -146045.85            0   -144034.19   -3507.4556 
    4000    488.37508    -146054.2            0   -144034.19   -3150.1738 
    4100    488.24239   -146053.66            0    -144034.2   -3308.8332 
    4200    484.67054   -146038.88            0   -144034.19   -3537.8365 
    4300    490.03505   -146061.07            0   -144034.19     -3135.36 
    4400    488.25618   -146053.73            0   -144034.21   -3330.6231 
    4500    489.47029   -146058.73            0   -144034.19   -3088.5714 
    4600    483.11074   -146032.41            0   -144034.17    -3372.441 
    4700    488.77001   -146055.83            0   -144034.18    -3026.754 
    4800    484.95981   -146040.07            0   -144034.18   -3411.9674 
    4900    487.69538   -146051.39            0   -144034.19   -3179.2871 
    5000    490.57752   -146063.32            0   -144034.19   -3042.5304 
    5100    483.22748   -146032.89            0   -144034.16   -3373.9068 
    5200    492.64592   -146071.89            0   -144034.21   -2868.1228 
    5300    483.70652    -146034.9            0   -144034.19   -3656.5088 
    5400    489.80849   -146060.14            0   -144034.19    -3031.446 
    5500    486.22986   -146045.33            0   -144034.19   -3274.8061 
    5600    486.02299   -146044.47            0   -144034.19    -3302.555 
    5700    488.83105   -146056.09            0   -144034.19    -3182.295 
    5800    488.92027   -146056.48            0   -144034.21   -3333.3503 
    5900      491.136   -146065.65            0   -144034.21   -3318.7202 
    6000     490.9343   -146064.81            0   -144034.21   -3195.8688 
    6100    485.84753   -146043.75            0   -144034.19   -3308.7869 
    6200    486.31632   -146045.69            0   -144034.19   -3207.0111 
    6300     485.5224    -146042.4            0   -144034.18   -2965.3179 
    6400    485.61503   -146042.78            0   -144034.18   -3128.9409 
    6500    486.57999   -146046.78            0   -144034.19    -3028.187 
    6600    488.37754   -146054.24            0   -144034.21     -3215.61 
    6700    485.17797   -146040.98            0   -144034.19    -3273.513 
    6800    489.32171   -146058.12            0   -144034.19   -2956.2708 
    6900    486.35606   -146045.85            0   -144034.19   -3099.7305 
    7000    487.30874    -146049.8            0   -144034.19   -3019.8581 
    7100    488.64805   -146055.35            0    -144034.2    -3061.582 
    7200    485.88042   -146043.87            0   -144034.18   -2954.7495 
    7300    484.56374   -146038.45            0    -144034.2   -3283.0582 
    7400    490.43045   -146062.73            0   -144034.22   -3199.4423 
    7500    486.48561    -146046.4            0    -144034.2   -3217.1237 
    7600    487.01418   -146048.57            0   -144034.18   -3036.6909 
    7700    486.33852   -146045.77            0   -144034.18   -3042.9607 
    7800    484.91637   -146039.89            0   -144034.18   -3085.2022 
    7900    486.69383   -146047.26            0    -144034.2   -3181.0192 
    8000    489.50687    -146058.9            0   -144034.21   -3074.2924 
    8100      488.291   -146053.86            0   -144034.19   -2920.8223 
    8200    485.39405   -146041.88            0   -144034.19   -3273.0644 
    8300    487.37102   -146050.05            0   -144034.19   -3003.2537 
    8400    487.04708   -146048.72            0    -144034.2   -2874.0529 
    8500    488.67109   -146055.44            0    -144034.2    -2982.595 
    8600    486.28057   -146045.54            0   -144034.19   -3045.8779 
    8700     483.3399   -146033.37            0   -144034.18   -3258.3202 
    8800    488.75548   -146055.79            0    -144034.2   -2877.1872 
    8900    486.90245   -146048.13            0   -144034.21   -3327.4991 
    9000    491.54856   -146067.35            0   -144034.21   -2936.0081 
    9100    487.11725   -146049.03            0   -144034.22   -3275.0965 
    9200    490.89472   -146064.65            0   -144034.22   -2941.4247 
    9300    484.85959   -146039.68            0    -144034.2   -3171.0495 
    9400    489.22804   -146057.75            0   -144034.21   -3114.5903 
    9500    489.63531   -146059.44            0   -144034.21   -2926.0075 
    9600    485.19228   -146041.05            0    -144034.2    -3198.399 
    9700       488.51   -146054.77            0    -144034.2   -2932.6541 
    9800    489.91484   -146060.61            0   -144034.22   -3049.5271 
    9900    487.84963   -146052.04            0    -144034.2   -3064.6295 
   10000    483.91581   -146035.76            0   -144034.19   -3082.7457 
   10100    487.38334   -146050.11            0    -144034.2   -2964.1129 
   10200    485.99341   -146044.35            0   -144034.18   -3112.5081 
   10300    485.61638   -146042.79            0   -144034.18   -2988.4849 
   10400    486.73754   -146047.43            0   -144034.19    -2955.767 
   10500    485.49191   -146042.29            0    -144034.2   -3067.0202 
   10600    489.94313   -146060.71            0   -144034.21   -2904.1879 
   10700    487.08091   -146048.87            0   -144034.21   -3054.6385 
   10800    486.28954   -146045.58            0   -144034.19    -3091.379 
   10900    487.93827   -146052.41            0    -144034.2   -3131.2647 
   11000     487.1524   -146049.15            0    -144034.2   -3095.2481 
   11100    488.31239   -146053.96            0    -144034.2   -3002.3559 
   11200    487.17775   -146049.26            0    -144034.2   -3113.3374 
   11300    488.17592    -146053.4            0   -144034.21   -3033.8264 
   11400    487.08552   -146048.88            0    -144034.2    -3049.812 
   11500    488.19742   -146053.49            0   -144034.21   -3002.4677 
   11600    486.27417   -146045.52            0    -144034.2   -3216.8048 
   11700     482.5141   -146029.94            0   -144034.17   -3128.4133 
   11800    487.71621   -146051.47            0   -144034.18   -2895.4413 
   11900    484.45589   -146037.98            0   -144034.17   -3116.3999 
   12000    487.99945   -146052.66            0    -144034.2   -3169.8005 
   12100    487.90066   -146052.24            0   -144034.19   -2986.6193 
   12200    488.10113   -146053.09            0   -144034.21   -3237.1447 
   12300    483.85206   -146035.49            0   -144034.18   -3243.1599 
   12400    486.64332   -146047.04            0   -144034.19   -2995.7102 
   12500    484.39738   -146037.74            0   -144034.18    -3112.054 
   12600    488.50181   -146054.75            0   -144034.22   -3186.3538 
   12700    489.24416   -146057.81            0    -144034.2   -3034.1622 
   12800    491.02811   -146065.21            0   -144034.22   -3028.0351 
   12900    486.10216   -146044.82            0   -144034.21   -3101.6424 
   13000    485.48571   -146042.25            0   -144034.19   -3102.6553 
   13100    485.26285   -146041.32            0   -144034.18   -2853.9434 
   13200    486.06763   -146044.66            0   -144034.19   -2988.8208 
   13300    486.39316   -146046.02            0    -144034.2   -3086.6574 
   13400    487.22323   -146049.45            0    -144034.2   -3074.3186 
   13500       489.59   -146059.25            0   -144034.21   -2956.4021 
   13600    487.59894   -146051.02            0   -144034.22   -3259.2572 
   13700    490.18728   -146061.72            0   -144034.21    -2921.143 
   13800    486.90077   -146048.13            0   -144034.21   -3147.9112 
   13900    487.34011   -146049.93            0    -144034.2    -3003.869 
   14000    488.22818    -146053.6            0    -144034.2    -3041.799 
   14100    487.87329   -146052.15            0   -144034.21   -3279.5434 
   14200    488.96564   -146056.66            0    -144034.2   -2974.7861 
   14300    489.14787   -146057.43            0   -144034.22   -3181.6851 
   14400    486.25217   -146045.44            0    -144034.2   -3069.7365 
   14500    488.26359   -146053.78            0   -144034.22   -3146.9562 
   14600    487.54396   -146050.78            0    -144034.2   -3015.6774 
   14700    488.44969   -146054.54            0   -144034.21   -3116.8743 
   14800    486.79957    -146047.7            0    -144034.2    -3157.078 
   14900    487.23082   -146049.48            0    -144034.2    -3129.397 
   15000    486.90567   -146048.14            0    -144034.2   -3129.7026 
   15100    487.87217   -146052.14            0   -144034.21   -3324.6688 
   15200    488.50424   -146054.75            0    -144034.2   -2942.5405 
   15300    488.52791   -146054.86            0   -144034.21   -3091.1938 
   15400    488.74583   -146055.76            0   -144034.21   -2997.0533 
   15500    486.61059   -146046.92            0   -144034.21   -3272.0559 
   15600    487.28926   -146049.73            0    -144034.2   -3128.4584 
   15700    487.49049   -146050.55            0    -144034.2   -3068.2172 
   15800    487.12568   -146049.04            0   -144034.19   -2887.6263 
   15900    485.74329   -146043.34            0   -144034.21   -3364.0993 
   16000    490.38482   -146062.54            0   -144034.21   -3000.1865 
   16100    487.31287   -146049.83            0   -144034.21    -3200.106 
   16200    487.04405    -146048.7            0   -144034.19   -3204.2237 
   16300    487.00189   -146048.53            0   -144034.19   -3044.1515 
   16400    486.20963   -146045.24            0   -144034.18   -3074.2091 
   16500    485.48022   -146042.24            0   -144034.19   -3146.7162 
   16600    486.08601   -146044.75            0    -144034.2   -3205.7502 
   16700    485.41201   -146041.95            0   -144034.19   -3104.2404 
   16800    491.19348   -146065.88            0   -144034.21   -2871.8487 
   16900    486.09595   -146044.79            0    -144034.2   -3244.8118 
   17000    485.38685   -146041.84            0   -144034.19   -3042.3149 
   17100    487.05388   -146048.75            0    -144034.2   -3150.9074 
   17200    486.89643   -146048.08            0   -144034.18   -2921.1341 
   17300    488.14644   -146053.26            0   -144034.19   -3081.9548 
   17400    485.94948   -146044.18            0    -144034.2   -3250.4308 
   17500    489.80053   -146060.12            0   -144034.21   -3038.6856 
   17600     488.6924   -146055.54            0   -144034.21   -3249.5192 
   17700    487.54259   -146050.77            0    -144034.2   -3030.3789 
   17800    485.77849   -146043.46            0   -144034.19   -3065.4234 
   17900    487.92114   -146052.35            0   -144034.21   -3145.8192 
   18000    488.91716   -146056.46            0    -144034.2   -3038.8702 
   18100     484.8098   -146039.45            0   -144034.19   -2927.8692 
   18200    487.67295   -146051.32            0    -144034.2   -3128.6973 
   18300    487.60974   -146051.05            0    -144034.2   -3073.4534 
   18400    489.07957   -146057.14            0   -144034.21   -3153.2352 
   18500    486.86661   -146047.98            0    -144034.2   -3059.6182 
   18600     489.2344   -146057.78            0   -144034.21   -3038.8547 
   18700    484.92628   -146039.95            0    -144034.2   -3277.5315 
   18800    488.39533    -146054.3            0    -144034.2   -3024.9031 
   18900    487.18286   -146049.29            0    -144034.2   -3076.7759 
   19000    489.54892   -146059.07            0    -144034.2   -2978.9997 
   19100    488.88626   -146056.34            0   -144034.21   -3116.4028 
   19200    485.64863   -146042.95            0   -144034.21   -3080.1091 
   19300    486.12325    -146044.9            0    -144034.2   -3060.3755 
   19400    486.95311   -146048.34            0   -144034.21   -3244.8652 
   19500    488.68299    -146055.5            0   -144034.21   -2965.0353 
   19600    487.17086   -146049.24            0   -144034.21   -3222.1825 
   19700    490.91349   -146064.73            0   -144034.22    -2989.265 
   19800    487.51407   -146050.68            0   -144034.22   -3095.9906 
   19900    488.84495   -146056.17            0   -144034.21   -3001.8426 
   20000    487.29152   -146049.74            0   -144034.21   -3140.8361 
   20100    488.93708   -146056.55            0   -144034.21   -3212.6397 
   20200    487.98727   -146052.62            0   -144034.21   -2992.5796 
   20300    487.84479   -146052.03            0   -144034.21   -3194.3755 
   20400    486.41543    -146046.1            0   -144034.19   -2994.8111 
   20500    485.27523   -146041.38            0   -144034.19   -3179.0679 
   20600     488.1804   -146053.41            0    -144034.2   -3050.8517 
   20700     488.6104    -146055.2            0   -144034.21   -3107.2947 
   20800    485.67994   -146043.08            0   -144034.21   -3321.5745 
   20900    488.00536   -146052.68            0    -144034.2   -2980.0997 
   21000    486.13787   -146044.97            0   -144034.21   -3185.9761 
   21100    487.83097   -146051.97            0    -144034.2    -2941.448 
   21200    487.51566   -146050.68            0   -144034.22   -2992.1601 
   21300    486.59365   -146046.85            0   -144034.21   -3063.6556 
   21400    483.88119   -146035.62            0   -144034.19    -3092.409 
   21500     489.9482   -146060.74            0   -144034.22   -3017.0598 
   21600    486.02961   -146044.51            0    -144034.2   -3018.9687 
   21700    485.43119   -146042.04            0    -144034.2   -3305.0178 
   21800     491.9728   -146069.12            0   -144034.23   -3013.9284 
   21900    489.05795   -146057.06            0   -144034.22   -3169.1075 
   22000    485.75856   -146043.38            0   -144034.19   -3152.2291 
   22100    485.40545   -146041.92            0   -144034.18   -3010.7706 
   22200    484.78223   -146039.35            0   -144034.19   -3157.4769 
   22300    489.34131   -146058.22            0   -144034.21   -2970.1757 
   22400    485.27744    -146041.4            0    -144034.2   -3073.6066 
   22500    489.55969   -146059.13            0   -144034.22   -2983.2853 
   22600    486.63803   -146047.03            0    -144034.2   -2992.3677 
   22700    485.56704    -146042.6            0    -144034.2   -3135.0003 
   22800    487.60424   -146051.03            0    -144034.2   -3039.7498 
   22900    486.48555   -146046.39            0    -144034.2   -3029.4166 
   23000    486.58512    -146046.8            0   -144034.19   -3081.5087 
   23100    486.30184   -146045.63            0   -144034.19   -3086.1798 
   23200    486.46233   -146046.31            0   -144034.21   -2988.8863 
   23300    487.25912   -146049.61            0   -144034.21   -2963.2736 
   23400    485.49149   -146042.29            0   -144034.21   -3201.9067 
   23500    487.83905   -146052.01            0   -144034.21   -2968.0333 
   23600    490.94618   -146064.87            0   -144034.22    -2976.892 
   23700     487.1025   -146048.95            0    -144034.2   -3063.9485 
   23800    485.82582   -146043.67            0    -144034.2   -3160.3722 
   23900    490.94669   -146064.88            0   -144034.23   -3037.7485 
   24000    488.39625   -146054.32            0   -144034.21   -3107.4769 
   24100    486.24124   -146045.39            0    -144034.2    -3080.716 
   24200    488.55884   -146054.99            0   -144034.22    -3125.842 
   24300    487.15515   -146049.18            0   -144034.21   -3098.3966 
   24400    488.83327   -146056.12            0   -144034.21   -2995.0761 
   24500    486.76683   -146047.56            0    -144034.2   -3029.3255 
   24600    487.50457   -146050.63            0   -144034.22   -3358.9377 
   24700    485.50129   -146042.32            0   -144034.19   -3085.7961 
   24800    488.98197   -146056.73            0    -144034.2   -3122.8643 
   24900    488.84723   -146056.17            0   -144034.21   -3052.8798 
   25000    486.36521   -146045.91            0   -144034.21   -3201.6404 
   25100    484.00911   -146036.14            0   -144034.18   -2983.4807 
   25200    484.39575   -146037.73            0   -144034.18   -3092.5336 
   25300    486.42242   -146046.14            0    -144034.2   -3051.6958 
   25400    485.64332   -146042.91            0   -144034.19   -3151.7782 
   25500    488.54754   -146054.93            0    -144034.2   -3052.8458 
   25600     487.3386   -146049.93            0    -144034.2    -3038.956 
   25700    486.46807   -146046.34            0   -144034.21    -3342.433 
   25800    486.73066    -146047.4            0   -144034.19   -2843.7292 
   25900    487.28038    -146049.7            0   -144034.21   -3049.7105 
   26000    489.62536    -146059.4            0   -144034.21   -2934.7975 
   26100    486.25759   -146045.46            0    -144034.2   -3041.9628 
   26200    485.99046   -146044.35            0    -144034.2   -2933.2916 
   26300    486.45978   -146046.29            0    -144034.2   -3025.5614 
   26400    487.68992   -146051.37            0   -144034.19   -2858.6344 
   26500    484.82049   -146039.51            0   -144034.19   -3188.0873 
   26600    486.30419   -146045.65            0    -144034.2   -3029.5024 
   26700    488.10861    -146053.1            0   -144034.19   -2821.5031 
   26800    482.22328   -146028.75            0   -144034.18   -3176.9865 
   26900     487.3426   -146049.94            0    -144034.2   -2943.0466 
   27000    488.55122   -146054.95            0   -144034.21   -3027.1068 
   27100    488.09797   -146053.08            0   -144034.21    -3066.345 
   27200    488.18275   -146053.43            0   -144034.21   -2965.2066 
   27300    489.44773   -146058.68            0   -144034.23   -3046.3932 
   27400    487.52386    -146050.7            0   -144034.21   -3009.4585 
   27500    487.33684   -146049.94            0   -144034.22   -3115.5883 
   27600    488.41106   -146054.37            0   -144034.21   -2925.2588 
   27700    487.74451   -146051.62            0   -144034.22    -3033.547 
   27800     486.4334   -146046.19            0    -144034.2   -3114.6608 
   27900    488.65868    -146055.4            0   -144034.22   -3076.9932 
   28000    488.19638   -146053.49            0   -144034.21     -3070.04 
   28100    489.31992   -146058.14            0   -144034.22   -2882.8586 
   28200    487.32279   -146049.88            0   -144034.22   -3107.0703 
   28300    485.30518   -146041.51            0   -144034.19   -2924.0963 
   28400    488.29304   -146053.88            0    -144034.2   -2889.0122 
   28500    485.12578   -146040.77            0    -144034.2   -3153.0353 
   28600    486.78028   -146047.62            0    -144034.2   -2965.5902 
   28700    488.19656   -146053.49            0   -144034.21   -3059.4526 
   28800    488.84857   -146056.18            0   -144034.21   -2966.3083 
   28900    485.95409   -146044.21            0    -144034.2   -2982.1178 
   29000    487.80839   -146051.89            0   -144034.21    -3084.829 
   29100    487.39654   -146050.17            0    -144034.2   -2935.2468 
   29200    488.84413   -146056.17            0   -144034.21   -3041.5119 
   29300    485.44632   -146042.09            0   -144034.19   -2930.4045 
   29400    482.76745      -146031            0   -144034.18   -3102.6466 
   29500    487.26833   -146049.63            0   -144034.19   -2888.0152 
   29600    487.43316   -146050.32            0    -144034.2   -3019.3496 
   29700    486.30709   -146045.66            0    -144034.2   -3011.9346 
   29800    485.29715   -146041.48            0   -144034.19   -3023.4829 
   29900    487.31485   -146049.82            0   -144034.19   -3010.0225 
   30000    484.00919   -146036.15            0    -144034.2   -2970.5206 
   30100    489.54517   -146059.08            0   -144034.22   -2971.5657 
   30200      484.605   -146038.61            0   -144034.19   -3129.2901 
   30300    485.37708    -146041.8            0   -144034.19   -2940.9972 
   30400    488.88683   -146056.34            0   -144034.21   -2965.6068 
   30500    486.45885   -146046.29            0    -144034.2   -3112.7905 
   30600    487.46941   -146050.47            0    -144034.2   -2877.7225 
   30700    485.42188      -146042            0    -144034.2   -3088.5731 
   30800       484.72   -146039.09            0   -144034.19   -2985.0606 
   30900    488.64288   -146055.33            0   -144034.21   -2900.3855 
   31000    485.52657   -146042.44            0   -144034.21   -3068.4256 
   31100    488.67882   -146055.48            0   -144034.21   -3034.8623 
   31200    489.17447   -146057.54            0   -144034.22   -3049.3745 
   31300     487.0177    -146048.6            0    -144034.2   -2939.2131 
   31400    486.29262    -146045.6            0    -144034.2   -3038.7214 
   31500     491.0219   -146065.19            0   -144034.22   -2990.8035 
   31600    486.45464   -146046.27            0    -144034.2   -3030.6885 
   31700    488.72517   -146055.68            0   -144034.22   -2952.4002 
   31800    486.48321   -146046.39            0    -144034.2   -2901.1712 
   31900    488.86307   -146056.25            0   -144034.21   -3069.7877 
   32000    487.41835   -146050.25            0   -144034.19   -2993.6321 
   32100     486.4167   -146046.12            0    -144034.2    -2979.598 
   32200      487.422   -146050.27            0    -144034.2    -3016.872 
   32300      487.289   -146049.73            0   -144034.21   -3031.0297 
   32400    484.81109   -146039.46            0   -144034.19   -3089.5896 
   32500      488.554   -146054.96            0   -144034.21   -2853.6499 
   32600    486.12019   -146044.89            0    -144034.2   -3052.3889 
   32700    488.06199   -146052.93            0   -144034.21   -2955.5823 
   32800    486.36291   -146045.91            0   -144034.21   -3098.0686 
   32900    487.68052   -146051.34            0    -144034.2   -2861.2134 
   33000    485.68295   -146043.08            0    -144034.2   -2949.4525 
   33100    489.22938   -146057.77            0   -144034.23   -2991.1075 
   33200    487.28497   -146049.72            0   -144034.21   -3003.8714 
   33300    487.83599   -146051.99            0   -144034.21   -3047.4479 
   33400    486.71576   -146047.36            0   -144034.21   -2908.6496 
   33500    485.77869   -146043.47            0   -144034.19   -3046.5021 
   33600    485.56428   -146042.58            0   -144034.19   -2938.5532 
   33700    487.09379   -146048.92            0    -144034.2   -3018.3591 
   33800    486.74252   -146047.46            0    -144034.2   -2983.5649 
   33900    486.67026   -146047.16            0    -144034.2    -2879.718 
   34000    487.60429   -146051.04            0   -144034.21   -3019.5828 
   34100    486.08155   -146044.73            0    -144034.2   -2906.6987 
   34200    486.17561   -146045.11            0    -144034.2   -2969.7252 
   34300    487.99429   -146052.64            0    -144034.2   -2738.6115 
   34400    488.43807   -146054.49            0   -144034.21   -3030.7857 
   34500    486.43304   -146046.18            0    -144034.2   -2985.1465 
   34600    487.31905   -146049.86            0   -144034.21    -3042.156 
   34700    486.73249   -146047.42            0    -144034.2   -3052.4557 
   34800    487.46968   -146050.47            0    -144034.2   -2930.9666 
   34900    488.94868    -146056.6            0   -144034.22   -3206.4165 
   35000    486.41666   -146046.11            0    -144034.2   -2986.9848 
   35100    487.74023    -146051.6            0   -144034.21   -3086.4922 
   35200    485.42609      -146042            0   -144034.18   -2800.5767 
   35300     481.8543   -146027.23            0   -144034.19   -3271.5559 
   35400    487.30511   -146049.79            0    -144034.2   -2802.2824 
   35500    488.37242   -146054.23            0   -144034.22   -3042.6564 
   35600    485.52621   -146042.43            0    -144034.2   -3094.2118 
   35700    486.42128   -146046.14            0   -144034.21   -3080.7291 
   35800    488.46507   -146054.58            0    -144034.2   -2979.5968 
   35900    486.01158   -146044.43            0   -144034.19   -3061.1075 
   36000     485.6261   -146042.83            0   -144034.18   -3160.6381 
   36100    489.00349   -146056.83            0   -144034.21   -3098.2689 
   36200    486.87028   -146047.99            0    -144034.2    -3145.387 
   36300    486.27101    -146045.5            0   -144034.19   -3000.3475 
   36400    486.19733   -146045.21            0    -144034.2   -3234.9975 
   36500    486.55977    -146046.7            0   -144034.19   -2976.6655 
   36600    485.47173    -146042.2            0   -144034.19   -3167.2231 
   36700    486.39236   -146046.01            0    -144034.2   -3054.6309 
   36800    486.88276   -146048.04            0    -144034.2   -3037.4318 
   36900     484.9177   -146039.91            0   -144034.19   -3214.4751 
   37000      487.991   -146052.63            0    -144034.2   -3037.9893 
   37100    489.33865   -146058.21            0   -144034.21     -3179.67 
   37200    487.03286   -146048.66            0    -144034.2   -3125.5965 
   37300     487.9617   -146052.52            0   -144034.21   -3092.5749 
   37400    489.18224   -146057.57            0   -144034.22   -3145.4169 
   37500    492.23065   -146070.19            0   -144034.23   -3018.8422 
   37600    486.28824   -146045.59            0    -144034.2   -3090.9954 
   37700    487.25018   -146049.57            0   -144034.21     -3121.76 
   37800    487.57454   -146050.91            0   -144034.21   -3069.0602 
   37900    488.38842   -146054.27            0    -144034.2   -3057.9461 
   38000    485.53019   -146042.43            0   -144034.18   -3080.7789 
   38100    486.05403   -146044.61            0    -144034.2   -3162.4952 
   38200    487.98942   -146052.63            0   -144034.21   -3118.2997 
   38300    487.48982   -146050.56            0   -144034.21   -3089.4469 
   38400    491.90431   -146068.84            0   -144034.23   -3139.2241 
   38500    485.61357   -146042.79            0    -144034.2   -3122.0293 
   38600    485.38674   -146041.86            0    -144034.2   -3171.3555 
   38700    489.16308   -146057.48            0    -144034.2   -2950.0955 
   38800    486.39425   -146046.02            0    -144034.2   -3118.0542 
   38900    486.49305   -146046.44            0   -144034.21   -3142.3236 
   39000    487.77406   -146051.74            0   -144034.21   -3171.7744 
   39100       488.29   -146053.87            0    -144034.2   -2957.1506 
   39200    487.11931   -146049.02            0    -144034.2   -3177.7149 
   39300    486.34417   -146045.82            0    -144034.2   -3093.4073 
   39400    486.29834   -146045.63            0   -144034.21   -3205.9296 
   39500    487.66576   -146051.29            0   -144034.21   -3082.0142 
   39600    488.44037    -146054.5            0   -144034.22   -3241.1435 
   39700    486.72849    -146047.4            0    -144034.2   -3120.2532 
   39800    488.33925   -146054.07            0   -144034.21   -3052.9319 
   39900    485.89353   -146043.96            0   -144034.21   -3170.0256 
   40000    485.97193   -146044.27            0   -144034.19   -3002.2501 
   40100    485.38934   -146041.86            0   -144034.19   -3098.8033 
   40200    488.54345   -146054.92            0   -144034.21   -3078.6716 
   40300    489.06739   -146057.09            0   -144034.21   -3044.1042 
   40400    482.91269   -146031.61            0   -144034.19   -3235.0784 
   40500    488.92679   -146056.52            0   -144034.22   -3149.2489 
   40600    490.36623   -146062.47            0   -144034.22   -3094.8018 
   40700    487.25516   -146049.59            0   -144034.21   -3229.5989 
   40800    488.94001   -146056.57            0   -144034.22    -3111.705 
   40900     486.6652   -146047.14            0    -144034.2   -3256.0279 
   41000    488.65842   -146055.39            0    -144034.2   -3004.8312 
   41100    489.02467    -146056.9            0    -144034.2   -2964.7873 
   41200    485.83448   -146043.71            0    -144034.2   -3346.3013 
   41300    489.67555    -146059.6            0   -144034.21   -3141.4937 
   41400    485.50016   -146042.32            0   -144034.19   -3190.4201 
   41500    489.34247   -146058.22            0   -144034.21   -2938.1363 
   41600    487.76936   -146051.71            0    -144034.2   -3349.1902 
   41700    486.01238   -146044.43            0   -144034.19   -3032.8004 
   41800    488.36928   -146054.19            0    -144034.2    -3057.614 
   41900    483.05676   -146032.21            0   -144034.19   -3184.1857 
   42000    488.58662    -146055.1            0   -144034.21   -3193.5247 
   42100    487.94699   -146052.44            0    -144034.2   -3016.7394 
   42200     487.3883   -146050.13            0   -144034.19    -3118.951 
   42300    485.75529   -146043.37            0   -144034.19   -2975.8706 
   42400    483.09955   -146032.38            0   -144034.19   -3202.9031 
   42500     489.0256   -146056.91            0    -144034.2   -2806.7328 
   42600    485.38324   -146041.85            0   -144034.21   -3256.9785 
   42700    486.71746   -146047.34            0   -144034.19   -2992.1552 
   42800    486.90863   -146048.15            0    -144034.2   -3158.5105 
   42900     487.8718   -146052.14            0   -144034.21   -3087.2706 
   43000    488.23508   -146053.64            0    -144034.2   -2996.1085 
   43100     485.3979   -146041.89            0   -144034.19   -3183.0574 
   43200    487.04376   -146048.71            0    -144034.2   -3084.9133 
   43300    485.65151   -146042.95            0    -144034.2   -3120.4094 
   43400    489.38904   -146058.42            0   -144034.21   -2984.7782 
   43500    486.95975   -146048.37            0   -144034.21   -3214.4116 
   43600    487.53345   -146050.74            0   -144034.21   -3078.8508 
   43700    488.03273   -146052.81            0   -144034.21   -3005.3014 
   43800    486.18331   -146045.15            0    -144034.2   -3105.0216 
   43900    489.23405   -146057.76            0    -144034.2   -2798.1787 
   44000    484.86848   -146039.72            0    -144034.2   -3214.3273 
   44100    488.11407   -146053.14            0   -144034.21    -2968.585 
   44200    490.31041   -146062.25            0   -144034.23    -3098.146 
   44300    489.92106   -146060.64            0   -144034.23   -3158.6045 
   44400    488.41927   -146054.41            0   -144034.22   -3111.0828 
   44500    487.60099   -146051.02            0   -144034.21   -3003.2875 
   44600    487.55364   -146050.83            0   -144034.21   -2821.3585 
   44700    486.63856   -146047.03            0    -144034.2   -2884.7367 
   44800    484.93457   -146039.98            0   -144034.19   -3027.1087 
   44900    487.84339   -146052.02            0   -144034.21   -3001.7012 
   45000    485.84177   -146043.74            0    -144034.2   -2991.4553 
   45100     485.3003   -146041.49            0   -144034.19   -2979.3027 
   45200    489.30159   -146058.06            0   -144034.21   -2889.6989 
   45300    485.94802   -146044.19            0   -144034.21      -3123.8 
   45400    485.72939   -146043.27            0    -144034.2   -2945.7663 
   45500    487.95127   -146052.47            0   -144034.21   -3006.4907 
   45600    488.18445   -146053.43            0   -144034.21   -2868.0483 
   45700    488.67688   -146055.49            0   -144034.22   -3032.7781 
   45800    486.97465   -146048.43            0   -144034.21   -2992.7618 
   45900    487.85156   -146052.06            0   -144034.21   -3051.4991 
   46000    490.55029   -146063.23            0   -144034.22   -3054.7071 
   46100    487.90455   -146052.27            0    -144034.2    -3019.124 
   46200    484.54264   -146038.36            0    -144034.2   -3071.0019 
   46300    488.40211   -146054.33            0    -144034.2   -2978.5167 
   46400    488.61676   -146055.23            0   -144034.22   -3024.4858 
   46500    484.36865   -146037.64            0    -144034.2   -3104.6704 
   46600    488.83132   -146056.12            0   -144034.22     -3015.93 
   46700    489.09897   -146057.23            0   -144034.22   -3030.7645 
   46800    488.98078   -146056.73            0   -144034.21   -2975.3689 
   46900     487.2635   -146049.63            0   -144034.22   -3115.6272 
   47000    486.39245   -146046.01            0    -144034.2   -2876.9601 
   47100    487.68577   -146051.38            0   -144034.21   -2985.2787 
   47200     487.2369   -146049.51            0    -144034.2   -2979.3049 
   47300    489.00661   -146056.85            0   -144034.22   -3000.7993 
   47400    485.94802   -146044.18            0    -144034.2   -3118.0004 
   47500    486.09457   -146044.78            0    -144034.2   -3007.9606 
   47600    487.86401    -146052.1            0    -144034.2    -2808.522 
   47700    486.39081   -146046.02            0   -144034.21   -3158.9964 
   47800    486.98947   -146048.48            0    -144034.2    -3026.964 
   47900    486.79826    -146047.7            0    -144034.2   -2972.7735 
   48000    488.91883   -146056.48            0   -144034.22   -3000.0736 
   48100    488.83658   -146056.15            0   -144034.22   -2966.8835 
   48200    487.69265    -146051.4            0   -144034.21   -2984.4305 
   48300    485.73664   -146043.31            0    -144034.2   -3016.8167 
   48400    487.40279    -146050.2            0   -144034.21   -2955.3124 
   48500    487.58153   -146050.96            0   -144034.22   -3017.1057 
   48600    488.44108    -146054.5            0   -144034.22   -3017.4628 
   48700    489.45636   -146058.71            0   -144034.23   -2998.2001 
   48800    486.84751   -146047.92            0   -144034.22   -3068.1005 
   48900    490.31436   -146062.26            0   -144034.23   -3087.7261 
   49000    489.18375   -146057.58            0   -144034.22   -3152.9653 
   49100    489.13451   -146057.38            0   -144034.22   -3047.5098 
   49200    492.60669   -146071.76            0   -144034.25   -3047.1046 
   49300    489.59039   -146059.28            0   -144034.24   -3187.6427 
   49400    487.09666   -146048.94            0   -144034.21   -2980.1477 
   49500    487.43374   -146050.34            0   -144034.22    -3035.013 
   49600    488.94026   -146056.56            0   -144034.21   -2978.7657 
   49700      489.475    -146058.8            0   -144034.23   -3161.1999 
   49800    489.84961   -146060.35            0   -144034.24   -3083.6642 
   49900    488.45167   -146054.56            0   -144034.22   -2963.8565 
   50000    490.07967   -146061.29            0   -144034.22   -2920.4889 
   50100    487.47404    -146050.5            0   -144034.22   -3035.3313 
   50200    488.67441   -146055.47            0   -144034.21   -2845.0101 
   50300    486.08313   -146044.74            0    -144034.2   -2909.8491 
   50400    488.58635   -146055.09            0   -144034.21   -2987.2452 
   50500    487.31152   -146049.84            0   -144034.22   -3009.3221 
   50600    486.06226   -146044.64            0   -144034.19    -2942.526 
   50700    486.55977   -146046.72            0   -144034.21   -2954.6615 
   50800    489.48284   -146058.83            0   -144034.23   -2887.6723 
   50900    488.64928   -146055.37            0   -144034.22    -3017.233 
   51000    488.70804   -146055.61            0   -144034.22   -2988.3828 
   51100    487.29801   -146049.78            0   -144034.22   -2893.5089 
   51200    488.89109   -146056.38            0   -144034.23   -2927.8714 
   51300    487.27615   -146049.68            0   -144034.21   -2839.8935 
   51400    486.80833   -146047.75            0   -144034.22   -2929.5803 
   51500    487.27034   -146049.65            0    -144034.2   -2755.2776 
   51600    486.52121   -146046.56            0   -144034.21   -2819.5289 
   51700    486.67992   -146047.22            0   -144034.22   -2930.4032 
   51800    486.75706   -146047.53            0   -144034.21   -2762.9568 
   51900    488.92372    -146056.5            0   -144034.21   -2687.7773 
   52000    486.42406   -146046.16            0   -144034.22   -3082.3971 
   52100    484.06287   -146036.37            0   -144034.19   -2898.2892 
   52200    487.09405   -146048.93            0   -144034.21   -2828.8562 
   52300    488.18088   -146053.42            0   -144034.21   -2829.4402 
   52400     485.9661   -146044.26            0   -144034.21   -2986.7137 
   52500    488.59312   -146055.13            0   -144034.22   -2861.5697 
   52600    488.70014   -146055.57            0   -144034.21   -2892.2432 
   52700    486.35422   -146045.86            0   -144034.21   -2962.3019 
   52800    487.87923   -146052.18            0   -144034.22   -2985.6596 
   52900    491.28781    -146066.3            0   -144034.23    -2922.978 
   53000    489.40542   -146058.51            0   -144034.23   -2854.7446 
   53100    488.36129   -146054.18            0   -144034.22   -2947.7269 
   53200    486.14671   -146045.01            0   -144034.21   -2961.5269 
   53300    487.54309   -146050.78            0   -144034.21   -2892.2102 
   53400    486.93455   -146048.27            0   -144034.21    -2948.902 
   53500    489.05909   -146057.08            0   -144034.24   -3065.0262 
   53600    491.99412   -146069.22            0   -144034.24   -2756.1475 
   53700    487.57208   -146050.91            0   -144034.22   -3058.3054 
   53800    489.05603   -146057.06            0   -144034.23   -2875.0578 
   53900    489.66827   -146059.58            0   -144034.21     -2830.82 
   54000     484.9761   -146040.17            0   -144034.21   -3152.1202 
   54100    486.93221   -146048.24            0   -144034.19   -2842.6693 
   54200    482.55779   -146030.14            0   -144034.19   -2971.9199 
   54300    487.78868    -146051.8            0   -144034.21   -2743.2667 
   54400    487.71729   -146051.51            0   -144034.22   -2897.7931 
   54500    488.16638   -146053.37            0   -144034.22   -2955.6961 
   54600    487.35052   -146049.99            0   -144034.21   -2889.5025 
   54700    487.49937   -146050.61            0   -144034.22   -3027.9287 
   54800    488.10238   -146053.09            0    -144034.2   -2756.7687 
   54900    483.16938   -146032.68            0    -144034.2   -3040.1909 
   55000     486.1168   -146044.87            0   -144034.19   -2791.9138 
   55100     489.0052   -146056.83            0   -144034.21   -2871.5734 
   55200    485.01128    -146040.3            0    -144034.2   -2918.6592 
   55300    485.56661   -146042.59            0   -144034.19   -2891.7377 
   55400    485.76957   -146043.44            0    -144034.2   -2956.5056 
   55500    488.12716   -146053.19            0    -144034.2   -2684.8865 
   55600    484.26894   -146037.24            0   -144034.21   -3014.7494 
   55700    484.94975   -146040.04            0   -144034.19   -2846.7123 
   55800    486.02605   -146044.49            0    -144034.2   -2835.9769 
   55900    487.60995   -146051.06            0   -144034.21   -2943.8924 
   56000    488.88014   -146056.32            0   -144034.22   -3004.5374 
   56100    486.62804   -146046.99            0   -144034.21   -3085.9877 
   56200    488.78879   -146055.94            0   -144034.21   -2889.3425 
   56300    486.27761   -146045.54            0    -144034.2   -3054.7819 
   56400    489.09118   -146057.19            0   -144034.21   -3026.2682 
   56500    489.22123   -146057.74            0   -144034.23   -2996.5285 
   56600    491.33253   -146066.48            0   -144034.23   -3002.0132 
   56700    488.94227   -146056.58            0   -144034.22   -2971.7905 
   56800    486.96605    -146048.4            0   -144034.21   -3144.2697 
   56900    488.44368   -146054.49            0    -144034.2   -2811.5747 
   57000    484.55794   -146038.42            0   -144034.19   -3095.4516 
   57100    488.68665   -146055.51            0   -144034.21   -3016.3532 
   57200    486.47251   -146046.35            0    -144034.2    -3114.702 
   57300    491.93021   -146068.95            0   -144034.23   -2850.5461 
   57400    484.24237    -146037.1            0   -144034.18   -2983.7658 
   57500    486.23944   -146045.37            0   -144034.19    -2985.398 
   57600    489.23411   -146057.78            0   -144034.21   -3064.3295 
   57700    490.00696   -146060.98            0   -144034.22   -2892.5984 
   57800    487.70551   -146051.46            0   -144034.21   -3137.7151 
   57900    485.72821   -146043.26            0    -144034.2   -2900.3037 
   58000    485.74782   -146043.34            0   -144034.19   -3017.0618 
   58100    485.24269   -146041.24            0   -144034.18   -2884.6244 
   58200    485.22366   -146041.17            0   -144034.19   -3052.1893 
   58300    487.17879   -146049.26            0    -144034.2   -2883.7669 
   58400    487.63919   -146051.18            0   -144034.21   -2870.3373 
   58500    487.98553   -146052.61            0   -144034.21   -2952.9383 
   58600    485.65113   -146042.94            0   -144034.19   -3026.2204 
   58700    488.51037   -146054.79            0   -144034.21   -2994.5829 
   58800     489.2476   -146057.84            0   -144034.21   -2908.4681 
   58900    485.99075   -146044.36            0   -144034.21   -3156.8188 
   59000     489.9844   -146060.88            0    -144034.2    -2743.096 
   59100    486.38278   -146045.99            0   -144034.22   -3228.1647 
   59200    488.93607   -146056.55            0   -144034.21   -2983.9028 
   59300    489.62986   -146059.42            0   -144034.22   -2996.2865 
   59400    488.15132   -146053.29            0    -144034.2   -3081.5136 
   59500    488.14024   -146053.26            0   -144034.22   -3061.9161 
   59600    488.54019    -146054.9            0    -144034.2   -2992.2567 
   59700    488.03966   -146052.82            0   -144034.19   -2940.4916 
   59800    485.55715   -146042.56            0    -144034.2   -3144.8026 
   59900     489.6396   -146059.45            0   -144034.21   -2973.9567 
   60000    486.84789    -146047.9            0    -144034.2   -3128.1485 
   60100    487.28575   -146049.71            0    -144034.2   -2902.1396 
   60200    484.74782   -146039.21            0   -144034.19   -3185.9989 
   60300    488.37004   -146054.18            0   -144034.19   -2849.6441 
   60400    485.68215   -146043.06            0   -144034.19   -2949.8832 
   60500    486.00331    -146044.4            0    -144034.2   -3078.5165 
   60600    488.69198   -146055.54            0   -144034.21   -3117.6311 
   60700    488.07751      -146053            0   -144034.21   -3085.8888 
   60800    489.74103   -146059.87            0   -144034.21   -3014.4129 
   60900    486.00399    -146044.4            0    -144034.2   -3188.4461 
   61000    488.56551   -146055.01            0   -144034.21   -3097.0052 
   61100    487.89915   -146052.25            0    -144034.2   -3180.7439 
   61200    485.84634   -146043.75            0   -144034.19   -3078.1994 
   61300    487.18268   -146049.27            0   -144034.19   -2938.0353 
   61400    484.89388   -146039.81            0    -144034.2   -3325.9379 
   61500    490.48521   -146062.96            0   -144034.21   -3096.0882 
   61600    485.99415   -146044.36            0   -144034.19   -3223.3319 
   61700    488.47214   -146054.61            0    -144034.2   -3115.0712 
   61800    486.05814   -146044.62            0   -144034.19   -3007.3682 
   61900    486.14187   -146044.97            0    -144034.2   -3335.1905 
   62000    489.17643   -146057.52            0   -144034.19   -3036.5934 
   62100    487.92387   -146052.34            0   -144034.19   -3017.9683 
   62200    486.76283   -146047.54            0   -144034.19   -3088.9155 
   62300    485.20255    -146041.1            0   -144034.21   -3264.4697 
   62400     490.9631   -146064.93            0   -144034.21   -3066.2066 
   62500    487.24518   -146049.54            0   -144034.19   -3134.6007 
   62600    483.15153   -146032.58            0   -144034.17   -3106.2797 
   62700     484.6108   -146038.63            0   -144034.18   -3120.4497 
   62800    488.78976   -146055.94            0   -144034.21   -3018.3124 
   62900    488.10396    -146053.1            0   -144034.21   -3172.2369 
   63000    487.94443   -146052.43            0    -144034.2    -3191.336 
   63100    486.34653   -146045.81            0   -144034.19   -3013.2916 
   63200    484.87654   -146039.73            0   -144034.18   -3128.7601 
   63300    487.86646   -146052.11            0    -144034.2   -3033.3982 
   63400    487.89413   -146052.22            0    -144034.2   -3145.2871 
   63500    488.04427   -146052.85            0    -144034.2   -3108.0014 
   63600    487.80935   -146051.87            0    -144034.2   -3095.4414 
   63700    487.56178   -146050.85            0    -144034.2   -3220.3676 
   63800     487.8714   -146052.14            0   -144034.21   -3151.5214 
   63900    486.64738   -146047.07            0    -144034.2   -3236.0502 
   64000    487.23569   -146049.49            0   -144034.19   -2982.8915 
   64100     487.0725   -146048.82            0   -144034.19   -2945.8339 
   64200    484.59521   -146038.57            0   -144034.19   -3067.3692 
   64300    486.54013   -146046.62            0    -144034.2   -3081.0128 
   64400    488.51344   -146054.78            0   -144034.19   -3043.1598 
   64500    485.43312   -146042.04            0   -144034.19   -3157.9925 
   64600    487.93114   -146052.37            0    -144034.2   -2968.8218 
   64700    486.62994   -146046.99            0   -144034.19    -3163.999 
   64800    488.14208   -146053.26            0   -144034.21   -3217.0872 
   64900    489.88451   -146060.46            0    -144034.2   -3016.3409 
   65000    488.97492   -146056.71            0   -144034.22   -3197.1249 
   65100    487.86856   -146052.12            0    -144034.2   -3138.9027 
   65200     488.3425   -146054.07            0   -144034.19   -3073.8525 
   65300    488.09068   -146053.05            0   -144034.21   -3327.0511 
   65400    489.32906   -146058.16            0    -144034.2   -3081.1011 
   65500     488.2478   -146053.68            0   -144034.19   -3062.0981 
   65600    486.81605   -146047.76            0    -144034.2   -3193.1818 
   65700    486.59036   -146046.82            0   -144034.18   -2941.6247 
   65800     484.0821   -146036.43            0   -144034.17   -2973.8547 
   65900     487.4884   -146050.53            0   -144034.18   -3049.9036 
   66000    487.66771   -146051.28            0   -144034.19   -2979.2393 
   66100    485.18249      -146041            0   -144034.19   -3229.5568 
   66200    489.57284   -146059.18            0   -144034.21   -2998.2601 
   66300     487.2584   -146049.61            0   -144034.21   -3146.0869 
   66400    486.37525   -146045.94            0   -144034.19    -3013.299 
   66500    486.59529   -146046.84            0   -144034.19   -3151.3123 
   66600    488.64536   -146055.33            0    -144034.2   -2939.4152 
   66700    487.15071   -146049.14            0   -144034.19   -3133.8815 
   66800    488.49137   -146054.71            0   -144034.21   -3096.7007 
   66900    489.15316   -146057.45            0   -144034.22   -3189.7034 
   67000    487.75924   -146051.68            0   -144034.21   -3219.5075 
   67100    489.32964   -146058.17            0    -144034.2   -3097.9692 
   67200    486.32786   -146045.75            0    -144034.2    -3118.705 
   67300    486.89198   -146048.07            0   -144034.19   -3073.1868 
   67400    486.35664   -146045.87            0    -144034.2   -3148.7366 
   67500    487.73692   -146051.57            0    -144034.2    -2976.815 
   67600    486.31894   -146045.71            0    -144034.2   -3101.1676 
   67700    489.49702   -146058.86            0    -144034.2   -3135.3721 
   67800    487.63764   -146051.16            0   -144034.19   -3111.7289 
   67900     485.2682   -146041.35            0   -144034.18   -3152.6582 
   68000    486.84899   -146047.88            0   -144034.18   -2968.1684 
   68100     485.7423   -146043.31            0   -144034.18   -3097.0774 
   68200    488.54263   -146054.91            0    -144034.2   -2989.3018 
   68300     483.0651   -146032.23            0   -144034.18   -3295.7609 
   68400    489.62776    -146059.4            0    -144034.2    -2998.722 
   68500    484.34726   -146037.54            0   -144034.19   -3214.9262 
   68600    489.54011   -146059.03            0   -144034.19   -2845.1548 
   68700    485.15546   -146040.89            0   -144034.19   -3226.8592 
   68800    485.25099   -146041.27            0   -144034.18   -3010.2892 
   68900    486.82626    -146047.8            0   -144034.19   -2885.4122 
   69000    488.79755   -146055.97            0   -144034.21   -3121.6315 
   69100    486.02654   -146044.49            0   -144034.19    -3068.983 
   69200    486.39308   -146046.01            0   -144034.19   -3129.0953 
   69300    489.16555   -146057.49            0    -144034.2   -3072.0974 
   69400     485.8575    -146043.8            0   -144034.19   -3152.2654 
   69500    486.74297   -146047.46            0    -144034.2   -3030.5544 
   69600    489.30124   -146058.04            0   -144034.19   -3016.2851 
   69700    485.54241   -146042.49            0    -144034.2   -3218.9731 
   69800     487.3302   -146049.87            0   -144034.18   -2844.2143 
   69900    486.05801   -146044.62            0   -144034.19   -3099.3434 
   70000    486.72634   -146047.38            0   -144034.18   -2944.6368 
   70100    483.20604   -146032.81            0   -144034.17   -3215.9253 
   70200    487.46642   -146050.44            0   -144034.19   -2954.5912 
   70300    484.94105   -146039.99            0   -144034.18   -3135.2634 
   70400    488.23361   -146053.63            0    -144034.2   -2989.8083 
   70500    484.98828   -146040.18            0   -144034.17   -3040.2642 
   70600    486.06294   -146044.64            0   -144034.19   -3172.1969 
   70700    486.91193   -146048.15            0   -144034.19    -3068.496 
   70800    489.50834   -146058.92            0   -144034.22    -3202.425 
   70900      488.536   -146054.88            0    -144034.2   -3001.5165 
   71000    486.83022   -146047.82            0   -144034.19   -3089.6585 
   71100    487.86458    -146052.1            0    -144034.2   -2989.0159 
   71200    488.42874   -146054.45            0   -144034.21   -3073.0106 
   71300    486.15547   -146045.02            0   -144034.19   -3056.4897 
   71400    487.29232   -146049.73            0    -144034.2   -3097.1286 
   71500    485.53738   -146042.47            0   -144034.19   -3191.7812 
   71600    488.45907   -146054.56            0   -144034.19   -2786.7976 
   71700    487.42665    -146050.3            0   -144034.21   -3134.6225 
   71800    486.21023   -146045.25            0   -144034.19   -3004.3677 
   71900    486.94874    -146048.3            0   -144034.19   -3177.8312 
   72000    484.23201   -146037.05            0   -144034.17    -2910.503 
   72100    487.74349    -146051.6            0    -144034.2   -3066.6037 
   72200    483.98761   -146036.05            0   -144034.19   -3099.2296 
   72300    489.24475   -146057.82            0   -144034.21   -2985.7475 
   72400    490.64181   -146063.61            0   -144034.22   -3067.0211 
   72500    486.79374   -146047.67            0   -144034.19   -3187.6422 
   72600    486.54543   -146046.63            0   -144034.18   -2929.9927 
   72700    487.67183   -146051.31            0    -144034.2   -3103.9477 
   72800    488.13678   -146053.23            0    -144034.2   -2988.6795 
   72900     486.4872    -146046.4            0   -144034.19   -3050.3846 
   73000    486.75597   -146047.51            0   -144034.19   -2997.2756 
   73100    486.24778   -146045.41            0   -144034.19   -3202.8972 
   73200    488.31122   -146053.95            0    -144034.2   -3198.9383 
   73300    486.86754   -146047.96            0   -144034.18   -3004.4949 
   73400    485.37481    -146041.8            0   -144034.19   -3164.7292 
   73500    486.94733   -146048.29            0   -144034.18   -3010.3157 
   73600    486.39241   -146046.01            0   -144034.19   -3207.6701 
   73700    489.06218   -146057.05            0   -144034.19   -2988.3713 
   73800    486.19549   -146045.18            0   -144034.18   -3156.9632 
   73900     485.9229   -146044.06            0   -144034.18   -3117.5583 
   74000    486.12016   -146044.86            0   -144034.18   -3070.4987 
   74100    485.70333   -146043.15            0   -144034.18   -3206.3562 
   74200    487.42567   -146050.28            0   -144034.19   -3166.1209 
   74300    487.78416   -146051.77            0   -144034.19   -3204.9882 
   74400    487.18299   -146049.26            0   -144034.18   -3173.5797 
   74500    487.21962   -146049.42            0   -144034.19   -3391.9215 
   74600    487.12433   -146049.02            0   -144034.18   -3214.2862 
   74700     487.6939   -146051.39            0   -144034.19   -3243.9484 
   74800    488.98299   -146056.73            0    -144034.2   -3214.0197 
   74900    488.43363   -146054.46            0    -144034.2   -3247.1084 
   75000    488.48746   -146054.68            0    -144034.2   -3326.3871 
   75100    486.47767   -146046.35            0   -144034.18   -3244.5393 
   75200     487.3226   -146049.86            0    -144034.2   -3458.7623 
   75300    489.83952   -146060.27            0   -144034.19   -3282.5581 
   75400     487.7552   -146051.64            0   -144034.19    -3311.938 
   75500    485.28235    -146041.4            0   -144034.18    -3220.761 
   75600    487.98345   -146052.58            0   -144034.19   -3174.2033 
   75700    485.72907   -146043.24            0   -144034.17    -3291.623 
   75800    486.29107   -146045.56            0   -144034.16   -3152.4576 
   75900    484.64733   -146038.77            0   -144034.17    -3338.941 
   76000    489.70389    -146059.7            0   -144034.19   -3159.7802 
   76100    487.35769      -146050            0   -144034.19   -3397.5007 
   76200    489.03646   -146056.96            0   -144034.21   -3197.7392 
   76300    486.64573   -146047.04            0   -144034.18   -3244.3871 
   76400    485.56989   -146042.59            0   -144034.17   -3196.7551 
   76500     489.6591   -146059.53            0    -144034.2   -3305.6011 
   76600    489.61852   -146059.35            0   -144034.19   -3229.7327 
   76700    486.88347   -146048.04            0   -144034.19   -3400.6249 
   76800    491.02016   -146065.17            0   -144034.21    -3372.545 
   76900    488.46945   -146054.59            0   -144034.19   -3112.7483 
   77000    487.91639   -146052.31            0    -144034.2   -3359.1956 
   77100    487.43564   -146050.32            0   -144034.19   -3191.5615 
   77200    486.63791   -146047.02            0   -144034.19   -3294.6561 
   77300    489.06222   -146057.04            0   -144034.18   -3165.2118 
   77400    488.64554   -146055.33            0    -144034.2   -3297.3437 
   77500    487.00475   -146048.53            0   -144034.19   -3294.4038 
   77600    488.68291   -146055.48            0   -144034.19   -3234.0652 
   77700    485.91359   -146044.01            0   -144034.18   -3314.3465 
   77800    487.28989   -146049.71            0   -144034.18   -3157.8589 
   77900    488.90235   -146056.38            0   -144034.18   -3191.2034 
   78000    486.22177    -146045.3            0   -144034.19   -3341.7924 
   78100    486.89208   -146048.05            0   -144034.17   -3246.5994 
   78200    488.95413    -146056.6            0    -144034.2   -3214.1692 
   78300    487.28701   -146049.68            0   -144034.17   -3039.7454 
   78400    485.63812   -146042.87            0   -144034.18   -3269.4225 
   78500    485.75106   -146043.33            0   -144034.17   -3137.2402 
   78600    486.91209   -146048.14            0   -144034.18   -3140.3227 
   78700    488.55901   -146054.96            0   -144034.19   -3044.3968 
   78800    487.81164   -146051.88            0    -144034.2   -3413.3363 
   78900    488.81638   -146056.04            0   -144034.19   -3122.9852 
   79000    487.75769   -146051.65            0   -144034.19   -3242.0535 
   79100    486.65908    -146047.1            0   -144034.18   -3091.3259 
   79200    488.60028   -146055.13            0   -144034.18    -3106.526 
   79300    485.26299   -146041.32            0   -144034.18   -3236.8297 
   79400    488.78506   -146055.91            0    -144034.2   -2982.4023 
   79500    485.44241   -146042.06            0   -144034.17   -3183.8342 
   79600     488.0393   -146052.82            0   -144034.19    -2946.415 
   79700    486.98293   -146048.45            0   -144034.19   -3149.1816 
   79800    485.64815   -146042.91            0   -144034.18    -3130.941 
   79900    487.33954   -146049.92            0   -144034.18   -3096.9033 
   80000    485.33737   -146041.63            0   -144034.18   -3269.7433 
   80100    487.78302   -146051.74            0   -144034.18   -2922.1994 
   80200    485.12078   -146040.73            0   -144034.18   -3324.0753 
   80300    490.21671   -146061.84            0    -144034.2   -2893.6873 
   80400    486.76212   -146047.53            0   -144034.19   -3289.2905 
   80500    489.97032   -146060.81            0    -144034.2   -3054.5966 
   80600     487.4129   -146050.23            0   -144034.19   -3343.7129 
   80700    486.45936   -146046.27            0   -144034.17   -3179.5912 
   80800    488.95319    -146056.6            0   -144034.19    -3107.859 
   80900    489.49128   -146058.82            0   -144034.19   -3054.6579 
   81000    486.99994   -146048.52            0   -144034.19   -3202.1955 
   81100    486.44441   -146046.21            0   -144034.18   -3118.1422 
   81200    486.11907   -146044.86            0   -144034.17   -3206.8685 
   81300    487.57106   -146050.87            0   -144034.18   -3096.1434 
   81400    487.46521   -146050.43            0   -144034.18   -3207.1104 
   81500    487.46913   -146050.45            0   -144034.18    -3173.685 
   81600    489.66251   -146059.54            0    -144034.2   -3057.2508 
   81700    485.64828   -146042.92            0   -144034.19   -3172.0333 
   81800    488.85344   -146056.18            0   -144034.19   -3063.6746 
   81900    484.70178   -146038.99            0   -144034.17   -3200.1797 
   82000    489.04125   -146056.95            0   -144034.18   -3014.7725 
   82100    484.90541   -146039.85            0   -144034.19    -3380.978 
   82200    490.31977   -146062.25            0   -144034.19   -3047.3895 
   82300    486.85073    -146047.9            0   -144034.19   -3381.9869 
   82400    488.93799   -146056.53            0   -144034.19   -3113.2874 
   82500    485.88058   -146043.87            0   -144034.18   -3231.0274 
   82600     486.6093    -146046.9            0   -144034.19   -3215.5109 
   82700    490.18455   -146061.68            0   -144034.18   -2902.3564 
   82800    484.84299   -146039.59            0   -144034.18   -3335.7862 
   82900    489.29429   -146058.01            0   -144034.19   -3124.6735 
   83000    487.65663   -146051.24            0    -144034.2   -3253.4456 
   83100     488.8055   -146055.99            0   -144034.19   -3020.7631 
   83200    486.29431   -146045.59            0   -144034.18   -3202.4822 
   83300    484.45101   -146037.95            0   -144034.17   -3177.0211 
   83400    491.00871    -146065.1            0   -144034.19   -2946.4807 
   83500    484.64495   -146038.77            0   -144034.18    -3256.709 
   83600    485.69497   -146043.11            0   -144034.18   -3161.1932 
   83700    490.23404   -146061.89            0   -144034.19   -3003.7966 
   83800    486.23859   -146045.36            0   -144034.18   -3161.8127 
   83900    487.57104   -146050.88            0   -144034.19   -3135.1929 
   84000    487.29532   -146049.74            0   -144034.19   -3149.2942 
   84100    486.91984   -146048.18            0   -144034.18   -3021.1438 
   84200    485.59284   -146042.69            0   -144034.18   -3130.4525 
   84300    485.68967   -146043.08            0   -144034.18   -3015.0381 
   84400    488.92992    -146056.5            0   -144034.19    -3057.686 
   84500     485.2818    -146041.4            0   -144034.18   -3079.2457 
   84600    488.67603   -146055.44            0   -144034.18   -3067.7026 
   84700    487.34084   -146049.92            0   -144034.19   -3171.3113 
   84800    490.53534   -146063.13            0   -144034.18   -2936.7314 
   84900      485.243   -146041.24            0   -144034.18   -3281.5603 
   85000    488.01359   -146052.71            0   -144034.19   -3141.6786 
   85100    486.19167   -146045.16            0   -144034.18   -2966.8963 
   85200    487.74865   -146051.61            0   -144034.19   -3157.7461 
   85300    489.37996   -146058.37            0    -144034.2   -3094.3143 
   85400    487.60796   -146051.03            0   -144034.19   -3035.4602 
   85500    486.95933   -146048.35            0   -144034.19   -3116.1417 
   85600    485.57202    -146042.6            0   -144034.18   -2935.4168 
   85700    484.52382   -146038.26            0   -144034.18   -3163.0085 
   85800    488.22613   -146053.58            0   -144034.18   -2950.6174 
   85900    489.13107   -146057.34            0    -144034.2   -3224.9933 
   86000    488.20087   -146053.49            0    -144034.2   -3053.1668 
   86100    489.07138    -146057.1            0    -144034.2   -3087.3699 
   86200    489.54414   -146059.05            0    -144034.2   -3022.0699 
   86300    484.91553   -146039.89            0   -144034.18   -3258.8345 
   86400    488.89173   -146056.35            0    -144034.2   -3025.6034 
   86500    486.68924   -146047.23            0   -144034.19   -3043.1471 
   86600    488.30171   -146053.92            0   -144034.21   -3105.5614 
   86700    490.55255   -146063.22            0    -144034.2   -2930.7376 
   86800     487.5167   -146050.67            0   -144034.21   -3161.9362 
   86900    489.56804   -146059.13            0   -144034.19   -2836.4257 
   87000    486.63795   -146047.02            0   -144034.19   -3266.8476 
   87100    486.56108    -146046.7            0   -144034.19    -3094.664 
   87200    489.33076   -146058.17            0    -144034.2   -3043.2632 
   87300    485.91608   -146044.03            0   -144034.19   -3269.0996 
   87400    487.42043   -146050.25            0   -144034.18   -2908.7312 
   87500    486.24308   -146045.39            0   -144034.19    -3245.098 
   87600    489.07319    -146057.1            0    -144034.2   -3056.7135 
   87700    488.30555   -146053.94            0   -144034.21    -3195.613 
   87800    489.32354   -146058.15            0   -144034.21   -2922.2728 
   87900    487.66015   -146051.26            0    -144034.2   -3119.6403 
   88000    486.90828   -146048.14            0    -144034.2   -3059.1496 
   88100    485.40869   -146041.93            0   -144034.19   -3189.1254 
   88200    488.87621   -146056.28            0   -144034.19   -2974.6037 
   88300    486.05319   -146044.62            0   -144034.21   -3208.5315 
   88400    490.62915   -146063.55            0   -144034.21   -2936.5082 
   88500    485.67986   -146043.06            0   -144034.19   -3213.9131 
   88600    488.79877   -146055.96            0   -144034.19   -2841.2739 
   88700    486.70034   -146047.29            0    -144034.2   -3143.2207 
   88800    487.95608   -146052.48            0    -144034.2   -2959.8484 
   88900    486.43559   -146046.18            0   -144034.19   -3177.9414 
   89000      487.522   -146050.68            0   -144034.19   -2959.5563 
   89100    485.60505   -146042.75            0   -144034.19    -3198.823 
   89200    488.44226   -146054.49            0   -144034.19    -3078.783 
   89300    485.22279   -146041.15            0   -144034.17    -3110.346 
   89400    489.58487   -146059.22            0    -144034.2    -3029.128 
   89500    484.36971   -146037.63            0   -144034.18   -3156.6544 
   89600    487.77207   -146051.71            0   -144034.19   -2855.0013 
   89700    485.45287   -146042.11            0   -144034.18   -3130.4098 
   89800    487.50491    -146050.6            0   -144034.19   -3020.4791 
   89900    485.66922   -146043.01            0   -144034.18   -3071.5215 
   90000    490.00276   -146060.95            0   -144034.21   -3105.6815 
   90100    488.70479   -146055.59            0   -144034.21   -3110.2004 
   90200    488.11092   -146053.12            0    -144034.2   -3015.7373 
   90300    489.13877   -146057.38            0   -144034.21   -3214.5815 
   90400    487.52945   -146050.71            0   -144034.19   -3093.3585 
   90500    487.20376   -146049.35            0   -144034.18   -2943.8393 
   90600    485.69484   -146043.12            0   -144034.19   -3213.8515 
   90700    487.70987   -146051.45            0   -144034.18   -2839.9634 
   90800     487.1867   -146049.29            0   -144034.19   -3137.4674 
   90900    488.42191   -146054.41            0    -144034.2   -3056.3895 
   91000    488.27032   -146053.78            0    -144034.2   -3033.9787 
   91100    487.27559   -146049.67            0    -144034.2   -3186.6303 
   91200    486.25778   -146045.45            0    -144034.2   -3032.4246 
   91300    487.18873   -146049.31            0    -144034.2   -3150.6322 
   91400    488.30665   -146053.93            0    -144034.2    -2989.607 
   91500    489.69718    -146059.7            0   -144034.22   -3114.8746 
   91600    486.93568   -146048.25            0   -144034.19   -3054.9961 
   91700    488.05998   -146052.91            0    -144034.2   -3068.1534 
   91800    487.05236   -146048.73            0   -144034.19   -2965.5773 
   91900    486.23668   -146045.36            0   -144034.19   -3079.0566 
   92000     488.5673   -146055.01            0    -144034.2   -2935.4124 
   92100    487.38139   -146050.11            0    -144034.2   -3057.2621 
   92200    487.96449   -146052.52            0   -144034.21   -3033.7592 
   92300    487.51819   -146050.67            0    -144034.2   -3132.3443 
   92400    490.21342   -146061.83            0   -144034.21   -3069.3221 
   92500    487.38945   -146050.14            0    -144034.2   -2998.8633 
   92600    484.12599   -146036.61            0   -144034.17   -3054.7172 
   92700    489.06248   -146057.06            0    -144034.2   -2943.4556 
   92800    485.91459   -146044.02            0   -144034.18   -2946.8754 
   92900    487.94276   -146052.43            0   -144034.21   -3031.7166 
   93000    487.07409   -146048.83            0    -144034.2   -2959.9183 
   93100    487.50044   -146050.58            0   -144034.18   -2898.5052 
   93200    483.74601   -146035.05            0   -144034.18    -3168.677 
   93300    487.18204   -146049.27            0   -144034.19   -3002.3468 
   93400    485.67164   -146043.01            0   -144034.18   -2894.5879 
   93500    487.91817   -146052.32            0   -144034.19   -2996.9934 
   93600     485.5347   -146042.45            0   -144034.18   -2961.7928 
   93700    486.26573   -146045.48            0   -144034.19   -3214.2513 
   93800    490.34162   -146062.35            0    -144034.2    -2956.281 
   93900    487.54335   -146050.77            0   -144034.19   -3193.1505 
   94000    484.65258    -146038.8            0   -144034.18   -3066.7945 
   94100    486.84392   -146047.87            0   -144034.19   -3079.2017 
   94200    486.61041    -146046.9            0   -144034.19    -3047.723 
   94300    488.10975    -146053.1            0   -144034.19   -3047.7638 
   94400    483.79365   -146035.24            0   -144034.18   -3126.0641 
   94500    486.48646    -146046.4            0   -144034.19   -3039.1288 
   94600    488.66425   -146055.41            0   -144034.19   -3000.5549 
   94700    488.25459   -146053.72            0   -144034.21   -3205.2308 
   94800    489.82742   -146060.22            0    -144034.2   -2881.2687 
   94900    486.50767   -146046.48            0   -144034.19   -3187.0215 
   95000     486.5539   -146046.66            0   -144034.18    -3027.313 
   95100    485.49902   -146042.31            0   -144034.19   -3060.4506 
   95200    487.21314    -146049.4            0   -144034.19   -3144.0399 
   95300    489.50322   -146058.88            0    -144034.2   -3062.3976 
   95400    487.04132   -146048.69            0   -144034.19   -3119.3335 
   95500    487.77336   -146051.72            0   -144034.19   -3124.3834 
   95600    486.81469   -146047.75            0   -144034.19   -3083.5131 
   95700    487.15078   -146049.15            0    -144034.2    -3173.696 
   95800    488.61799   -146055.21            0   -144034.19   -3059.3894 
   95900    485.22083   -146041.16            0   -144034.19   -3228.3851 
   96000    489.06281   -146057.06            0    -144034.2   -3038.6477 
   96100    489.22946   -146057.75            0   -144034.21   -3101.4963 
   96200    488.79847   -146055.97            0   -144034.21   -3240.7886 
   96300    488.32293   -146054.01            0   -144034.21   -3206.0408 
   96400    490.75727   -146064.07            0   -144034.21   -3030.2592 
   96500    487.20618   -146049.37            0   -144034.19   -3137.5018 
   96600    488.43178   -146054.44            0    -144034.2   -3048.3261 
   96700    485.34963   -146041.69            0   -144034.19   -3198.5875 
   96800    490.12696   -146061.45            0   -144034.19   -2846.4802 
   96900    485.91246   -146044.01            0   -144034.18   -3141.2031 
   97000    488.74096   -146055.73            0    -144034.2   -2991.5989 
   97100    487.09241    -146048.9            0   -144034.19   -3075.1728 
   97200    486.03591   -146044.52            0   -144034.18   -3002.1495 
   97300    488.06041   -146052.91            0    -144034.2   -3002.0909 
   97400    486.27892   -146045.53            0   -144034.19   -3188.2008 
   97500    488.83673   -146056.12            0   -144034.19   -2891.6588 
   97600    486.56365    -146046.7            0   -144034.18   -3001.6648 
   97700    486.72481   -146047.37            0   -144034.18   -3090.0063 
   97800    487.44356   -146050.36            0    -144034.2   -3074.3985 
   97900    489.29942   -146058.03            0    -144034.2   -2940.1224 
   98000      486.357   -146045.85            0   -144034.19    -2878.392 
   98100    485.62583   -146042.82            0   -144034.17   -2952.8259 
   98200    484.99318   -146040.22            0   -144034.19   -2967.4444 
   98300    485.75297   -146043.34            0   -144034.18   -2970.2901 
   98400    488.10083   -146053.07            0   -144034.19   -2841.1186 
   98500    484.18744   -146036.87            0   -144034.18   -3101.1904 
   98600    490.35456   -146062.39            0   -144034.19   -2629.8598 
   98700    484.29226   -146037.31            0   -144034.19   -3212.8184 
   98800    487.27581   -146049.66            0   -144034.19   -2899.5271 
   98900    487.29673   -146049.76            0    -144034.2   -3091.9822 
   99000    485.75333   -146043.35            0   -144034.18   -2985.4973 
   99100    486.06688   -146044.66            0   -144034.19   -3044.4039 
   99200    487.62181   -146051.09            0   -144034.19   -2979.4578 
   99300    486.06018   -146044.62            0   -144034.18   -3033.1637 
   99400    488.63534   -146055.27            0   -144034.18   -2773.6446 
   99500    487.24133   -146049.51            0   -144034.19   -3009.5399 
   99600    489.24101    -146057.8            0   -144034.21   -3142.8834 
   99700    489.41104    -146058.5            0    -144034.2   -2915.4125 
   99800    486.69309   -146047.25            0   -144034.19   -3030.4342 
   99900    486.73109   -146047.39            0   -144034.17   -2881.4227 
  100000    489.52644   -146058.97            0   -144034.19    -2967.552 
  100100    485.95725    -146044.2            0   -144034.19   -3159.1403 
  100200      486.381   -146045.95            0   -144034.18   -2997.7117 
  100300    486.07126   -146044.65            0   -144034.17   -2882.2476 
  100400    487.38767   -146050.12            0   -144034.19   -3060.7391 
  100500    486.31312   -146045.68            0   -144034.19   -3154.0471 
  100600    486.30461   -146045.63            0   -144034.18   -3115.0702 
  100700    488.59293   -146055.09            0   -144034.18   -2855.4952 
  100800    486.34896   -146045.83            0    -144034.2   -3172.2766 
  100900    488.22962   -146053.61            0    -144034.2   -2930.9734 
  101000     485.3573   -146041.72            0   -144034.19    -3258.075 
  101100    491.14359   -146065.68            0   -144034.21   -2914.5798 
  101200    488.29227   -146053.87            0    -144034.2   -3086.0916 
  101300    485.09788   -146040.63            0   -144034.18   -2962.8738 
  101400    485.11521   -146040.71            0   -144034.18   -3082.4291 
  101500    488.66254   -146055.39            0   -144034.19   -2952.5566 
  101600     486.6425   -146047.04            0    -144034.2   -3149.0717 
  101700    487.24426   -146049.53            0   -144034.19   -2980.9331 
  101800    487.57977   -146050.92            0   -144034.19   -3092.7028 
  101900    490.93735   -146064.82            0   -144034.21   -2966.9513 
  102000    490.46186   -146062.85            0   -144034.21   -2972.7121 
  102100    489.28454   -146057.98            0   -144034.21   -3098.7564 
  102200    487.75794   -146051.67            0   -144034.21   -3145.8159 
  102300     489.8035   -146060.13            0    -144034.2   -3044.2089 
  102400    488.01215   -146052.71            0    -144034.2   -2898.4972 
  102500    485.80828   -146043.58            0   -144034.18   -3047.1613 
  102600    488.22696   -146053.61            0    -144034.2   -3121.2965 
  102700    489.93416   -146060.65            0   -144034.19   -2774.0756 
  102800     486.9014   -146048.11            0   -144034.19   -3212.8407 
  102900     487.1174   -146049.01            0    -144034.2   -3065.4799 
  103000     485.4465   -146042.07            0   -144034.17   -2924.2391 
  103100     489.5283   -146058.99            0   -144034.21   -3112.9907 
  103200     488.2634   -146053.74            0   -144034.19   -2982.7874 
  103300    484.70781   -146039.02            0   -144034.17   -2965.2883 
  103400     487.2983   -146049.75            0   -144034.19    -3105.292 
  103500    487.13587   -146049.08            0   -144034.19   -3018.3925 
  103600    487.31854   -146049.83            0   -144034.19   -3026.4928 
  103700    485.17644   -146040.96            0   -144034.18   -3063.1294 
  103800    486.94313   -146048.28            0   -144034.19   -3139.2278 
  103900    486.97316   -146048.41            0   -144034.19   -3096.0976 
  104000    488.69192   -146055.52            0   -144034.19   -3006.0818 
  104100    488.30489   -146053.92            0    -144034.2   -3158.8446 
  104200    488.05801   -146052.89            0   -144034.19   -3010.2286 
  104300    486.53766    -146046.6            0   -144034.18   -3096.4991 
  104400    488.10306   -146053.07            0   -144034.18   -2978.3496 
  104500    485.93003   -146044.06            0   -144034.16   -2991.3444 
  104600    488.55852   -146054.98            0    -144034.2    -3133.198 
  104700    487.02034   -146048.59            0   -144034.18   -3038.2822 
  104800    489.98074   -146060.86            0    -144034.2   -2892.4677 
  104900    488.92455   -146056.49            0    -144034.2    -3007.111 
  105000    485.58138   -146042.64            0   -144034.18   -3106.2131 
  105100    490.61142   -146063.46            0    -144034.2   -2802.6273 
[...]
  975000    486.16771   -146045.05            0   -144034.17   -3051.0493 
  975100    485.84196    -146043.7            0   -144034.16    -3086.543 
  975200    485.67485      -146043            0   -144034.16   -3088.2494 
  975300    486.75666   -146047.49            0   -144034.17   -3119.9483 
  975400    488.41338   -146054.34            0   -144034.17    -3041.743 
  975500     487.4683   -146050.43            0   -144034.16   -3012.7333 
  975600    487.88559   -146052.17            0   -144034.18    -3131.741 
  975700    488.45175   -146054.51            0   -144034.17   -3138.8551 
  975800    488.80189   -146055.97            0   -144034.19   -3211.5112 
  975900    488.65977   -146055.38            0   -144034.19   -3061.1851 
  976000    488.03313   -146052.77            0   -144034.17   -3079.4281 
  976100    487.82958   -146051.94            0   -144034.18   -3136.5189 
  976200    486.99971    -146048.5            0   -144034.17   -3311.3547 
  976300    488.75149   -146055.73            0   -144034.16   -2896.3898 
  976400    484.63945   -146038.73            0   -144034.17   -3179.5189 
  976500    486.19429   -146045.16            0   -144034.16   -3069.1835 
  976600    489.45569   -146058.67            0   -144034.18   -2925.9648 
  976700    486.20515   -146045.22            0   -144034.18   -3334.5575 
  976800    490.18755   -146061.71            0    -144034.2   -3130.2532 
  976900    489.99423   -146060.91            0    -144034.2   -3119.0796 
  977000    485.71886    -146043.2            0   -144034.17   -3093.6226 
  977100    487.77593   -146051.71            0   -144034.18   -3083.4512 
  977200    486.57755   -146046.75            0   -144034.17   -3089.9368 
  977300    486.11764   -146044.85            0   -144034.17   -3068.7718 
  977400    486.73279   -146047.39            0   -144034.17   -3002.8891 
  977500    486.58859   -146046.79            0   -144034.17   -3030.3641 
  977600    485.87357   -146043.83            0   -144034.16   -2941.6177 
  977700    485.99512   -146044.34            0   -144034.16   -3004.9345 
  977800    486.53861   -146046.59            0   -144034.17    -3063.804 
  977900    487.40103   -146050.15            0   -144034.17   -2756.8159 
  978000    482.69659   -146030.68            0   -144034.15   -3022.7086 
  978100    486.15501   -146044.99            0   -144034.16   -2884.5963 
  978200    485.54764   -146042.49            0   -144034.17   -3057.5086 
  978300    486.91198   -146048.14            0   -144034.17   -2905.5281 
  978400    487.66961   -146051.29            0   -144034.19   -3185.9404 
  978500    487.21387   -146049.39            0   -144034.18   -2937.3152 
  978600    486.07982   -146044.69            0   -144034.17   -2906.5918 
  978700    486.05163   -146044.57            0   -144034.17   -2995.7202 
  978800    487.05434   -146048.73            0   -144034.17   -2916.3493 
  978900    484.39959   -146037.74            0   -144034.17   -3138.6035 
  979000    490.48962   -146062.94            0   -144034.18   -2908.5483 
  979100    486.44578   -146046.19            0   -144034.16   -3032.8743 
  979200    486.56675    -146046.7            0   -144034.17   -2963.8581 
  979300    488.78711    -146055.9            0   -144034.18   -3037.7013 
  979400    488.39619   -146054.28            0   -144034.18    -3016.719 
  979500    487.79758   -146051.82            0   -144034.19   -3120.7037 
  979600     489.7022   -146059.68            0   -144034.18   -2984.1126 
  979700    487.92816   -146052.34            0   -144034.18   -3089.0557 
  979800    487.00353   -146048.52            0   -144034.18    -3058.193 
  979900    486.19715   -146045.17            0   -144034.17    -3018.558 
  980000    487.80755   -146051.85            0   -144034.18   -2957.0978 
  980100    485.39103   -146041.84            0   -144034.17   -3118.4027 
  980200    485.80829   -146043.56            0   -144034.16   -3009.4886 
  980300    486.31852   -146045.67            0   -144034.16   -3084.5488 
  980400    489.24261    -146057.8            0    -144034.2   -2997.2547 
  980500    488.27102   -146053.76            0   -144034.18   -3010.3667 
  980600    486.52515   -146046.53            0   -144034.17     -3139.63 
  980700     485.8956   -146043.93            0   -144034.17   -3109.5745 
  980800     486.7849   -146047.61            0   -144034.17   -3116.4439 
  980900    489.50105   -146058.86            0   -144034.19   -3027.3826 
  981000     485.2163   -146041.12            0   -144034.17    -3164.367 
  981100    488.68398   -146055.47            0   -144034.18    -2926.008 
  981200    486.48209   -146046.36            0   -144034.18   -3107.8869 
  981300    487.79131   -146051.78            0   -144034.18   -3153.1008 
  981400    488.58253   -146055.06            0   -144034.19   -3077.7268 
  981500    486.26886   -146045.48            0   -144034.17   -3163.3341 
  981600    488.03135   -146052.77            0   -144034.18   -3062.7397 
  981700    488.46266   -146054.57            0   -144034.19    -3163.759 
  981800    487.78963   -146051.77            0   -144034.18   -3121.4745 
  981900    489.71298   -146059.75            0    -144034.2   -3165.3589 
  982000    488.98125   -146056.71            0   -144034.18   -3014.5433 
  982100    487.39383   -146050.14            0   -144034.19   -3244.4485 
  982200    489.12342   -146057.31            0    -144034.2   -3191.4368 
  982300    487.97772   -146052.56            0   -144034.19   -3004.3902 
  982400    487.78334   -146051.74            0   -144034.18   -3046.3574 
  982500    485.71545   -146043.19            0   -144034.17   -3096.9252 
  982600    487.00626   -146048.52            0   -144034.17    -3079.253 
  982700     485.5389   -146042.45            0   -144034.17   -3268.6341 
  982800    488.81674   -146056.02            0   -144034.18   -3122.7388 
  982900    488.44365   -146054.48            0   -144034.18   -3137.9046 
  983000    487.91718    -146052.3            0   -144034.18    -3153.352 
  983100    488.38999   -146054.27            0   -144034.19   -3338.4887 
  983200    487.60417      -146051            0   -144034.17   -3116.6531 
  983300    485.84682   -146043.72            0   -144034.16   -3058.4094 
  983400    486.83912   -146047.82            0   -144034.16   -2903.8996 
  983500     486.0832    -146044.7            0   -144034.17   -3096.2574 
  983600    488.03121   -146052.76            0   -144034.17   -3062.7746 
  983700    489.66472   -146059.53            0   -144034.18   -3070.2305 
  983800     486.2937   -146045.57            0   -144034.17   -3021.2707 
  983900    487.78756   -146051.75            0   -144034.16   -3005.5661 
  984000    486.10388   -146044.79            0   -144034.17   -3066.8301 
  984100    488.89377   -146056.34            0   -144034.18   -2985.4627 
  984200    486.67459   -146047.16            0   -144034.18    -3156.873 
  984300    491.56335    -146067.4            0    -144034.2   -3024.9059 
  984400    486.81014   -146047.71            0   -144034.17   -2937.7614 
  984500    490.06721   -146061.21            0   -144034.19   -3084.7665 
  984600    487.54607   -146050.77            0   -144034.19   -3155.1105 
  984700    490.19128   -146061.71            0   -144034.18   -2898.7931 
  984800    486.58426   -146046.79            0   -144034.18   -3245.7692 
  984900    485.37078   -146041.75            0   -144034.16   -3182.3727 
  985000     491.0425   -146065.22            0   -144034.18   -2932.6828 
  985100    487.50285   -146050.59            0   -144034.18   -3191.2619 
  985200    487.63381   -146051.13            0   -144034.18   -3205.0808 
  985300    488.75643   -146055.77            0   -144034.18   -2979.8746 
  985400    488.73632   -146055.69            0   -144034.18   -3143.0926 
  985500    487.02177   -146048.58            0   -144034.17   -2998.8766 
  985600    486.60318   -146046.86            0   -144034.17   -3167.5465 
  985700    487.28289   -146049.67            0   -144034.17   -3083.7062 
  985800    487.43343    -146050.3            0   -144034.18   -3235.3357 
  985900    487.91567   -146052.28            0   -144034.17   -3031.9111 
  986000    487.17128   -146049.21            0   -144034.17   -3086.3337 
  986100    489.08479   -146057.13            0   -144034.18    -3224.613 
  986200     485.1046   -146040.65            0   -144034.16   -3107.9311 
  986300    489.12401   -146057.29            0   -144034.18   -3035.7283 
  986400    486.82043   -146047.75            0   -144034.17   -3149.4879 
  986500    488.86504   -146056.22            0   -144034.18   -3152.4083 
  986600    487.90859   -146052.25            0   -144034.17   -2964.4267 
  986700    487.21893   -146049.41            0   -144034.18   -3173.0781 
  986800    488.48721   -146054.66            0   -144034.18   -2980.8605 
  986900    485.93834    -146044.1            0   -144034.16    -3128.515 
  987000    486.78559    -146047.6            0   -144034.16   -3023.0824 
  987100     485.6886   -146043.06            0   -144034.15    -3117.357 
  987200    487.52837   -146050.68            0   -144034.17   -3103.1817 
  987300    486.61931   -146046.92            0   -144034.17   -3021.6094 
  987400    485.66669   -146042.97            0   -144034.16   -3145.5637 
  987500    488.16664   -146053.32            0   -144034.17   -3133.6614 
  987600    489.61926   -146059.33            0   -144034.17   -2934.4016 
  987700    485.66308   -146042.96            0   -144034.17   -3281.6736 
  987800    489.23953   -146057.76            0   -144034.17   -3090.8145 
  987900    484.49919   -146038.13            0   -144034.14   -3065.3786 
  988000    483.90779   -146035.67            0   -144034.13   -2965.4627 
  988100    487.63691   -146051.13            0   -144034.17   -3235.3987 
  988200    484.99232   -146040.16            0   -144034.14   -2923.4794 
  988300    486.33716   -146045.74            0   -144034.15   -3096.3403 
  988400    484.93731   -146039.94            0   -144034.14   -3204.4189 
  988500    486.44849    -146046.2            0   -144034.15   -3101.9252 
  988600    487.51541   -146050.63            0   -144034.17   -3233.9345 
  988700    487.63192    -146051.1            0   -144034.16   -3121.8015 
  988800    488.83853    -146056.1            0   -144034.17   -3109.1414 
  988900    489.43983   -146058.59            0   -144034.17    -3083.117 
  989000    487.04998    -146048.7            0   -144034.16   -3083.0872 
  989100    487.81483   -146051.86            0   -144034.16   -3181.6012 
  989200    487.91474   -146052.28            0   -144034.17   -3089.2819 
  989300    488.99308   -146056.75            0   -144034.18   -3007.8471 
  989400     485.0414   -146040.38            0   -144034.16   -3124.7173 
  989500    485.82277   -146043.61            0   -144034.15   -3135.4325 
  989600    490.18944   -146061.69            0   -144034.17   -3061.7195 
  989700    487.73822   -146051.55            0   -144034.17   -3139.3639 
  989800    487.12826   -146049.03            0   -144034.17   -3187.1019 
  989900    489.41663    -146058.5            0   -144034.18   -3172.5892 
  990000    488.76406   -146055.79            0   -144034.17   -2935.5675 
  990100    486.38842   -146045.95            0   -144034.16    -3159.086 
  990200    488.08482   -146052.99            0   -144034.17   -3173.5366 
  990300    485.83252   -146043.65            0   -144034.15   -3001.4778 
  990400    486.70928   -146047.29            0   -144034.16   -3219.5695 
  990500    488.46259   -146054.54            0   -144034.16   -2925.2982 
  990600    487.89116   -146052.19            0   -144034.18   -3126.9373 
  990700    488.73283   -146055.67            0   -144034.18   -3011.4587 
  990800    486.32184   -146045.69            0   -144034.17   -3229.3928 
  990900    489.17629   -146057.51            0   -144034.18     -3050.13 
  991000    487.70969   -146051.43            0   -144034.17   -3064.9275 
  991100    484.07401   -146036.37            0   -144034.15   -3172.2814 
  991200    486.24678   -146045.36            0   -144034.15    -2982.778 
  991300     487.1113   -146048.94            0   -144034.15   -2954.7689 
  991400    486.09397   -146044.74            0   -144034.16    -3165.703 
  991500    489.16487   -146057.45            0   -144034.17   -2942.9454 
  991600    486.02584   -146044.46            0   -144034.16   -3102.0965 
  991700    487.07944   -146048.82            0   -144034.17   -3011.8216 
  991800    488.97552   -146056.67            0   -144034.17   -2861.9643 
  991900    486.82139   -146047.76            0   -144034.17   -3073.2114 
  992000    487.37581   -146050.05            0   -144034.17   -3044.9083 
  992100    488.11258   -146053.09            0   -144034.16   -3021.7095 
  992200    489.38175   -146058.35            0   -144034.17   -2948.5726 
  992300    484.76847   -146039.25            0   -144034.15   -3230.4762 
  992400    490.17243   -146061.62            0   -144034.17    -2867.474 
  992500    486.43626   -146046.15            0   -144034.16   -3041.4963 
  992600    488.29958   -146053.87            0   -144034.16   -2912.2272 
  992700    486.88362      -146048            0   -144034.16   -3000.1306 
  992800    484.73076    -146039.1            0   -144034.16   -2978.9266 
  992900    490.35948    -146062.4            0   -144034.18   -2865.8438 
  993000    488.28331   -146053.81            0   -144034.17   -2906.5664 
  993100    485.42476   -146041.96            0   -144034.15   -3014.5527 
  993200    485.94054   -146044.09            0   -144034.15    -2918.724 
  993300    485.85416   -146043.74            0   -144034.15    -3018.826 
  993400    485.30933   -146041.47            0   -144034.14   -2936.2618 
  993500    486.18629   -146045.12            0   -144034.16   -3167.8477 
  993600    488.05396   -146052.84            0   -144034.15   -2946.3706 
  993700     489.1274   -146057.31            0   -144034.18   -3072.3023 
  993800    487.43371   -146050.28            0   -144034.16   -2968.0197 
  993900    484.43452   -146037.87            0   -144034.16   -3078.8616 
  994000    488.12554   -146053.14            0   -144034.16   -2859.5054 
  994100    484.69161   -146038.93            0   -144034.15   -3156.0691 
  994200    487.98641   -146052.57            0   -144034.16   -2944.4869 
  994300    486.16505   -146045.04            0   -144034.17   -3153.4678 
  994400    486.42929   -146046.12            0   -144034.15   -3037.7696 
  994500     491.2827   -146066.21            0   -144034.17   -2883.3825 
  994600    484.89561   -146039.78            0   -144034.16   -3182.1411 
  994700    489.29102   -146057.98            0   -144034.17   -3002.3904 
  994800    487.09011   -146048.86            0   -144034.16   -3120.6632 
  994900    488.73436   -146055.66            0   -144034.16   -3007.4131 
  995000    485.41253   -146041.91            0   -144034.15   -3003.7224 
  995100    487.72021   -146051.47            0   -144034.16   -3141.6582 
  995200    486.54317   -146046.58            0   -144034.14   -2903.7765 
  995300    485.87993   -146043.84            0   -144034.15   -3102.8505 
  995400    484.54154   -146038.31            0   -144034.15   -3162.2328 
  995500    487.88478   -146052.13            0   -144034.14   -2946.5076 
  995600    487.31934   -146049.82            0   -144034.17   -3275.5499 
  995700    489.55826   -146059.07            0   -144034.17   -2930.1167 
  995800    485.51755   -146042.36            0   -144034.16   -3195.9221 
  995900    489.61706   -146059.33            0   -144034.18   -3044.7159 
  996000    490.29902   -146062.14            0   -144034.17   -3077.3816 
  996100    488.19777   -146053.46            0   -144034.18   -3177.7451 
  996200    488.68353   -146055.46            0   -144034.17   -3152.3843 
  996300    490.91621   -146064.71            0   -144034.18   -3173.6515 
  996400    488.25441   -146053.68            0   -144034.17   -3073.7933 
  996500     485.5664   -146042.56            0   -144034.16   -3153.6606 
  996600    487.86134   -146052.04            0   -144034.15   -2943.8067 
  996700    484.08076    -146036.4            0   -144034.15   -3081.7544 
  996800    488.95581   -146056.59            0   -144034.17   -3018.0895 
  996900    487.45301   -146050.37            0   -144034.17   -2881.0016 
  997000    489.26364   -146057.86            0   -144034.17   -2940.9258 
  997100    486.18615   -146045.13            0   -144034.17   -3017.1427 
  997200    487.52451   -146050.67            0   -144034.18    -2948.979 
  997300    489.32675   -146058.14            0   -144034.19   -2999.7756 
  997400    487.98787   -146052.59            0   -144034.18   -3048.6473 
  997500    488.36805   -146054.17            0   -144034.18   -2987.8961 
  997600     487.7525    -146051.6            0   -144034.16   -2931.6595 
  997700    486.24488   -146045.35            0   -144034.15   -2934.7413 
  997800    486.93526   -146048.22            0   -144034.16   -3000.9621 
  997900    489.46537    -146058.7            0   -144034.17   -2798.2941 
  998000    485.40127   -146041.87            0   -144034.15   -3053.3607 
  998100    488.81255   -146055.99            0   -144034.17   -2957.5352 
  998200    486.14246   -146044.93            0   -144034.15   -2989.0567 
  998300    486.33872   -146045.75            0   -144034.15   -2957.1342 
  998400    486.71286    -146047.3            0   -144034.16   -2838.9159 
  998500    487.00008    -146048.5            0   -144034.18   -3050.3453 
  998600    486.13818   -146044.92            0   -144034.16   -2934.9483 
  998700    488.35264   -146054.09            0   -144034.16   -2966.8737 
  998800    487.13841   -146049.07            0   -144034.17   -3080.2059 
  998900    485.82524   -146043.61            0   -144034.14   -2971.4923 
  999000    488.01742    -146052.7            0   -144034.16   -2967.2902 
  999100    487.40799   -146050.18            0   -144034.17    -3064.359 
  999200    488.08996      -146053            0   -144034.16   -2916.5004 
  999300    488.62867   -146055.23            0   -144034.17   -3047.0957 
  999400    484.65921   -146038.79            0   -144034.15   -2980.1185 
  999500    485.85467   -146043.74            0   -144034.15    -2981.565 
  999600    487.15114   -146049.12            0   -144034.17   -2991.4256 
  999700    486.84671   -146047.85            0   -144034.15   -2961.8493 
  999800    484.77138   -146039.25            0   -144034.14   -2994.9729 
  999900    486.73351   -146047.39            0   -144034.16   -3070.7583 
 1000000    487.87798   -146052.13            0   -144034.17   -3067.9537 
Loop time of 3546.13 on 0 procs for 1000000 steps with 32000 atoms

Performance: 24.365 ns/day, 0.985 hours/ns, 281.997 timesteps/s
74.8% CPU use with 1 MPI tasks x no OpenMP threads

MPI task timing breakdown:
Section |  min time  |  avg time  |  max time  |%varavg| %total
---------------------------------------------------------------
Pair    | 2555.2     | 2555.2     | 2555.2     |   0.0 | 72.06
Neigh   | 49.141     | 49.141     | 49.141     |   0.0 |  1.39
Comm    | 748.88     | 748.88     | 748.88     |   0.0 | 21.12
Output  | 0.75008    | 0.75008    | 0.75008    |   0.0 |  0.02
Modify  | 125.79     | 125.79     | 125.79     |   0.0 |  3.55
Other   |            | 66.33      |            |       |  1.87

Nlocal:    32000 ave 32000 max 32000 min
Histogram: 1 0 0 0 0 0 0 0 0 0
Nghost:    11588 ave 11588 max 11588 min
Histogram: 1 0 0 0 0 0 0 0 0 0
Neighs:    0 ave 0 max 0 min
Histogram: 1 0 0 0 0 0 0 0 0 0
FullNghs:  526944 ave 526944 max 526944 min
Histogram: 1 0 0 0 0 0 0 0 0 0

Total # of neighbors = 526944
Ave neighs/atom = 16.467
Neighbor list builds = 31273
Dangerous builds = 0
Total wall time: 0:59:06
