LAMMPS (10 Mar 2016)
  using 64 OpenMP thread(s) per MPI task
# bulk Si via Tersoff

units		metal
atom_style	atomic

lattice		diamond 5.431
Lattice spacing in x,y,z = 5.431 5.431 5.431
region		box block 0 20 0 20 0 10
create_box	1 box
Created orthogonal box = (0 0 0) to (108.62 108.62 54.31)
  1 by 2 by 1 MPI processor grid
create_atoms	1 box
Created 32000 atoms

pair_style	tersoff
pair_coeff	* * Si.tersoff Si
mass            1 28.06

velocity	all create 1000.0 376847 loop geom

neighbor	1.0 bin
neigh_modify    delay 5 every 1

fix		1 all nve

timestep	0.001

run		100
Neighbor list info ...
  1 neighbor list requests
  update every 1 steps, delay 5 steps, check yes
  max neighbors/atom: 2000, page size: 100000
  master list distance cutoff = 4.2
  ghost atom cutoff = 4.2
  binsize = 2.1 -> bins = 52 52 26
Memory usage per processor = 67.7514 Mbytes
Step Temp E_pair E_mol TotEng Press 
       0         1000   -148173.19            0   -144036.99    7019.4434 
     100    430.57813   -145815.61            0   -144034.65   -14550.734 
Loop time of 10.1659 on 128 procs for 100 steps with 32000 atoms

Performance: 0.850 ns/day, 28.239 hours/ns, 9.837 timesteps/s
100.0% CPU use with 2 MPI tasks x no OpenMP threads

MPI task timing breakdown:
Section |  min time  |  avg time  |  max time  |%varavg| %total
---------------------------------------------------------------
Pair    | 10.058     | 10.074     | 10.09      |   0.5 | 99.10
Neigh   | 0.042499   | 0.042545   | 0.042591   |   0.0 |  0.42
Comm    | 0.015865   | 0.03165    | 0.047434   |   8.9 |  0.31
Output  | 9.203e-05  | 0.00010002 | 0.000108   |   0.1 |  0.00
Modify  | 0.01284    | 0.012856   | 0.012872   |   0.0 |  0.13
Other   |            | 0.004583   |            |       |  0.05

Nlocal:    16000 ave 16007 max 15993 min
Histogram: 1 0 0 0 0 0 0 0 0 1
Nghost:    7405 ave 7408 max 7402 min
Histogram: 1 0 0 0 0 0 0 0 0 1
Neighs:    0 ave 0 max 0 min
Histogram: 2 0 0 0 0 0 0 0 0 0
FullNghs:  265250 ave 265348 max 265152 min
Histogram: 1 0 0 0 0 0 0 0 0 1

Total # of neighbors = 530500
Ave neighs/atom = 16.5781
Neighbor list builds = 2
Dangerous builds = 0
Total wall time: 0:00:10
