LAMMPS (10 Mar 2016)
KOKKOS mode is enabled (../kokkos.cpp:36)
  using 1 GPU(s)
  using 0 OpenMP thread(s) per MPI task
package kokkos
# bulk Si via Tersoff

include pak.kokkos
package kokkos neigh half/thread
newton on

units		metal
atom_style	atomic

lattice		diamond 5.431
Lattice spacing in x,y,z = 5.431 5.431 5.431
region		box block 0 40 0 40 0 40
create_box	1 box
Created orthogonal box = (0 0 0) to (217.24 217.24 217.24)
  1 by 1 by 1 MPI processor grid
create_atoms	1 box
Created 512000 atoms

pair_style	tersoff
pair_coeff	* * Si.tersoff Si
mass            1 28.06

velocity	all create 1000.0 376847 loop geom

neighbor	1.0 bin
neigh_modify    delay 5 every 1

fix		1 all nve

timestep	0.001

run		10
Neighbor list info ...
  1 neighbor list requests
  update every 1 steps, delay 5 steps, check yes
  max neighbors/atom: 2000, page size: 100000
  master list distance cutoff = 4.2
  ghost atom cutoff = 4.2
  binsize = 2.1 -> bins = 104 104 104
Memory usage per processor = 74.3243 Mbytes
Step Temp E_pair E_mol TotEng Press 
       0         1000     -2370771            0   -2304589.9    7019.6454 
      10    619.66723   -2345543.7            0   -2304533.5     12474.08 
Loop time of 0.187182 on 0 procs for 10 steps with 512000 atoms

Performance: 4.616 ns/day, 5.200 hours/ns, 53.424 timesteps/s
74.7% CPU use with 1 MPI tasks x no OpenMP threads

MPI task timing breakdown:
Section |  min time  |  avg time  |  max time  |%varavg| %total
---------------------------------------------------------------
Pair    | 0.12441    | 0.12441    | 0.12441    |   0.0 | 66.46
Neigh   | 0          | 0          | 0          |   0.0 |  0.00
Comm    | 0.054117   | 0.054117   | 0.054117   |   0.0 | 28.91
Output  | 0.00012529 | 0.00012529 | 0.00012529 |   0.0 |  0.07
Modify  | 0.0033376  | 0.0033376  | 0.0033376  |   0.0 |  1.78
Other   |            | 0.005197   |            |       |  2.78

Nlocal:    512000 ave 512000 max 512000 min
Histogram: 1 0 0 0 0 0 0 0 0 0
Nghost:    70245 ave 70245 max 70245 min
Histogram: 1 0 0 0 0 0 0 0 0 0
Neighs:    0 ave 0 max 0 min
Histogram: 1 0 0 0 0 0 0 0 0 0
FullNghs:  8.192e+06 ave 8.192e+06 max 8.192e+06 min
Histogram: 1 0 0 0 0 0 0 0 0 0

Total # of neighbors = 8192000
Ave neighs/atom = 16
Neighbor list builds = 0
Dangerous builds = 0

run             2420
Memory usage per processor = 74.3243 Mbytes
Step Temp E_pair E_mol TotEng Press 
      10    619.66723   -2345543.7            0   -2304533.5     12474.08 
    2430    488.02947   -2336843.1            0   -2304544.8   -3110.3736 
Loop time of 86.162 on 0 procs for 2420 steps with 512000 atoms

Performance: 2.427 ns/day, 9.890 hours/ns, 28.087 timesteps/s
73.4% CPU use with 1 MPI tasks x no OpenMP threads

MPI task timing breakdown:
Section |  min time  |  avg time  |  max time  |%varavg| %total
---------------------------------------------------------------
Pair    | 70.774     | 70.774     | 70.774     |   0.0 | 82.14
Neigh   | 1.8217     | 1.8217     | 1.8217     |   0.0 |  2.11
Comm    | 12.493     | 12.493     | 12.493     |   0.0 | 14.50
Output  | 0.00014796 | 0.00014796 | 0.00014796 |   0.0 |  0.00
Modify  | 0.76818    | 0.76818    | 0.76818    |   0.0 |  0.89
Other   |            | 0.3057     |            |       |  0.35

Nlocal:    512000 ave 512000 max 512000 min
Histogram: 1 0 0 0 0 0 0 0 0 0
Nghost:    65549 ave 65549 max 65549 min
Histogram: 1 0 0 0 0 0 0 0 0 0
Neighs:    0 ave 0 max 0 min
Histogram: 1 0 0 0 0 0 0 0 0 0
FullNghs:  8.4363e+06 ave 8.4363e+06 max 8.4363e+06 min
Histogram: 1 0 0 0 0 0 0 0 0 0

Total # of neighbors = 8436302
Ave neighs/atom = 16.4772
Neighbor list builds = 87
Dangerous builds = 0
Total wall time: 0:01:28
