LAMMPS (10 Mar 2016)
package gpu 1
package gpu 1
# bulk Si via Tersoff

#include pak.kokkos

units		metal
atom_style	atomic

lattice		diamond 5.431
Lattice spacing in x,y,z = 5.431 5.431 5.431
region		box block 0 40 0 40 0 40
create_box	1 box
Created orthogonal box = (0 0 0) to (217.24 217.24 217.24)
  1 by 1 by 1 MPI processor grid
create_atoms	1 box
Created 512000 atoms

pair_style	tersoff
pair_coeff	* * Si.tersoff Si
mass            1 28.06

velocity	all create 1000.0 376847 loop geom

neighbor	1.0 bin
neigh_modify    delay 5 every 1

fix		1 all nve

timestep	0.001

run		10
Neighbor list info ...
  0 neighbor list requests
  update every 1 steps, delay 5 steps, check yes
  max neighbors/atom: 2000, page size: 100000
  master list distance cutoff = 4.2
  ghost atom cutoff = 7.4
  binsize = 2.1 -> bins = 104 104 104
Memory usage per processor = 99.5776 Mbytes
Step Temp E_pair E_mol TotEng Press 
       0         1000     -2370771            0   -2304589.9    7019.6454 
      10    619.66723   -2345543.7            0   -2304533.5     12474.08 
Loop time of 0.582888 on 1 procs for 10 steps with 512000 atoms

Performance: 1.482 ns/day, 16.191 hours/ns, 17.156 timesteps/s
92.1% CPU use with 1 MPI tasks x no OpenMP threads

MPI task timing breakdown:
Section |  min time  |  avg time  |  max time  |%varavg| %total
---------------------------------------------------------------
Pair    | 0.33997    | 0.33997    | 0.33997    |   0.0 | 58.33
Neigh   | 0          | 0          | 0          |   0.0 |  0.00
Comm    | 0.053549   | 0.053549   | 0.053549   |   0.0 |  9.19
Output  | 0.0031037  | 0.0031037  | 0.0031037  |   0.0 |  0.53
Modify  | 0.13111    | 0.13111    | 0.13111    |   0.0 | 22.49
Other   |            | 0.05516    |            |       |  9.46

Nlocal:    512000 ave 512000 max 512000 min
Histogram: 1 0 0 0 0 0 0 0 0 0
Nghost:    113091 ave 113091 max 113091 min
Histogram: 1 0 0 0 0 0 0 0 0 0
Neighs:    0 ave 0 max 0 min
Histogram: 1 0 0 0 0 0 0 0 0 0

Total # of neighbors = 0
Ave neighs/atom = 0
Neighbor list builds = 0
Dangerous builds = 0

run             2420
Memory usage per processor = 99.6101 Mbytes
Step Temp E_pair E_mol TotEng Press 
      10    619.66723   -2345543.7            0   -2304533.5     12474.08 
    2430    488.02947   -2336843.1            0   -2304544.8   -3110.3736 
Loop time of 148.291 on 1 procs for 2420 steps with 512000 atoms

Performance: 1.410 ns/day, 17.021 hours/ns, 16.319 timesteps/s
86.1% CPU use with 1 MPI tasks x no OpenMP threads

MPI task timing breakdown:
Section |  min time  |  avg time  |  max time  |%varavg| %total
---------------------------------------------------------------
Pair    | 88.898     | 88.898     | 88.898     |   0.0 | 59.95
Neigh   | 0.32119    | 0.32119    | 0.32119    |   0.0 |  0.22
Comm    | 14.519     | 14.519     | 14.519     |  -nan |  9.79
Output  | 0.0036928  | 0.0036928  | 0.0036928  |   0.0 |  0.00
Modify  | 29.707     | 29.707     | 29.707     |   0.0 | 20.03
Other   |            | 14.84      |            |       | 10.01

Nlocal:    512000 ave 512000 max 512000 min
Histogram: 1 0 0 0 0 0 0 0 0 0
Nghost:    113089 ave 113089 max 113089 min
Histogram: 1 0 0 0 0 0 0 0 0 0
Neighs:    0 ave 0 max 0 min
Histogram: 1 0 0 0 0 0 0 0 0 0

Total # of neighbors = 0
Ave neighs/atom = 0
Neighbor list builds = 87
Dangerous builds = 0

Please see the log.cite file for references relevant to this simulation

Total wall time: 0:02:30
