LAMMPS (10 Mar 2016)
KOKKOS mode is enabled (../kokkos.cpp:36)
  using 1 GPU(s)
  using 0 OpenMP thread(s) per MPI task
package kokkos
# bulk Si via Tersoff

include pak.kokkos
package kokkos neigh half/thread
newton on

units		metal
atom_style	atomic

lattice		diamond 5.431
Lattice spacing in x,y,z = 5.431 5.431 5.431
region		box block 0 40 0 40 0 40
create_box	1 box
Created orthogonal box = (0 0 0) to (217.24 217.24 217.24)
  1 by 1 by 1 MPI processor grid
create_atoms	1 box
Created 512000 atoms

pair_style	tersoff
pair_coeff	* * Si.tersoff Si
mass            1 28.06

velocity	all create 1000.0 376847 loop geom

neighbor	1.0 bin
neigh_modify    delay 5 every 1

fix		1 all nve

timestep	0.001

run		10
Neighbor list info ...
  1 neighbor list requests
  update every 1 steps, delay 5 steps, check yes
  max neighbors/atom: 2000, page size: 100000
  master list distance cutoff = 4.2
  ghost atom cutoff = 4.2
  binsize = 2.1 -> bins = 104 104 104
Memory usage per processor = 74.3243 Mbytes
Step Temp E_pair E_mol TotEng Press 
       0         1000     -2370771            0   -2304589.9    7019.6454 
      10    619.66723   -2345543.7            0   -2304533.5     12474.08 
Loop time of 0.180065 on 0 procs for 10 steps with 512000 atoms

Performance: 4.798 ns/day, 5.002 hours/ns, 55.535 timesteps/s
81.0% CPU use with 1 MPI tasks x no OpenMP threads

MPI task timing breakdown:
Section |  min time  |  avg time  |  max time  |%varavg| %total
---------------------------------------------------------------
Pair    | 0.12428    | 0.12428    | 0.12428    |   0.0 | 69.02
Neigh   | 0          | 0          | 0          |   0.0 |  0.00
Comm    | 0.046676   | 0.046676   | 0.046676   |   0.0 | 25.92
Output  | 0.0001113  | 0.0001113  | 0.0001113  |   0.0 |  0.06
Modify  | 0.003245   | 0.003245   | 0.003245   |   0.0 |  1.80
Other   |            | 0.005757   |            |       |  3.20

Nlocal:    512000 ave 512000 max 512000 min
Histogram: 1 0 0 0 0 0 0 0 0 0
Nghost:    70245 ave 70245 max 70245 min
Histogram: 1 0 0 0 0 0 0 0 0 0
Neighs:    0 ave 0 max 0 min
Histogram: 1 0 0 0 0 0 0 0 0 0
FullNghs:  8.192e+06 ave 8.192e+06 max 8.192e+06 min
Histogram: 1 0 0 0 0 0 0 0 0 0

Total # of neighbors = 8192000
Ave neighs/atom = 16
Neighbor list builds = 0
Dangerous builds = 0

run             2420
Memory usage per processor = 74.3243 Mbytes
Step Temp E_pair E_mol TotEng Press 
      10    619.66723   -2345543.7            0   -2304533.5     12474.08 
    2430    488.02947   -2336843.1            0   -2304544.8   -3110.3736 
Loop time of 85.0583 on 0 procs for 2420 steps with 512000 atoms

Performance: 2.458 ns/day, 9.763 hours/ns, 28.451 timesteps/s
73.4% CPU use with 1 MPI tasks x no OpenMP threads

MPI task timing breakdown:
Section |  min time  |  avg time  |  max time  |%varavg| %total
---------------------------------------------------------------
Pair    | 70.77      | 70.77      | 70.77      |   0.0 | 83.20
Neigh   | 1.8201     | 1.8201     | 1.8201     |   0.0 |  2.14
Comm    | 11.42      | 11.42      | 11.42      |   0.0 | 13.43
Output  | 0.00013234 | 0.00013234 | 0.00013234 |   0.0 |  0.00
Modify  | 0.74819    | 0.74819    | 0.74819    |  -nan |  0.88
Other   |            | 0.3006     |            |       |  0.35

Nlocal:    512000 ave 512000 max 512000 min
Histogram: 1 0 0 0 0 0 0 0 0 0
Nghost:    65549 ave 65549 max 65549 min
Histogram: 1 0 0 0 0 0 0 0 0 0
Neighs:    0 ave 0 max 0 min
Histogram: 1 0 0 0 0 0 0 0 0 0
FullNghs:  8.4363e+06 ave 8.4363e+06 max 8.4363e+06 min
Histogram: 1 0 0 0 0 0 0 0 0 0

Total # of neighbors = 8436302
Ave neighs/atom = 16.4772
Neighbor list builds = 87
Dangerous builds = 0
Total wall time: 0:01:27
