LAMMPS (10 Mar 2016)
KOKKOS mode is enabled (../kokkos.cpp:36)
  using 1 GPU(s)
  using 0 OpenMP thread(s) per MPI task
package kokkos
# bulk Si via Tersoff

include pak.kokkos
package kokkos neigh half/thread
newton on

units		metal
atom_style	atomic

lattice		diamond 5.431
Lattice spacing in x,y,z = 5.431 5.431 5.431
region		box block 0 40 0 40 0 40
create_box	1 box
Created orthogonal box = (0 0 0) to (217.24 217.24 217.24)
  1 by 1 by 1 MPI processor grid
create_atoms	1 box
Created 512000 atoms

pair_style	tersoff
pair_coeff	* * Si.tersoff Si
mass            1 28.06

velocity	all create 1000.0 376847 loop geom

neighbor	1.0 bin
neigh_modify    delay 5 every 1

fix		1 all nve

timestep	0.001

run		10
Neighbor list info ...
  1 neighbor list requests
  update every 1 steps, delay 5 steps, check yes
  max neighbors/atom: 2000, page size: 100000
  master list distance cutoff = 4.2
  ghost atom cutoff = 4.2
  binsize = 2.1 -> bins = 104 104 104
Memory usage per processor = 74.3243 Mbytes
Step Temp E_pair E_mol TotEng Press 
       0         1000     -2370771            0   -2304589.9    7019.6454 
      10    619.66723   -2345543.7            0   -2304533.5     12474.08 
Loop time of 0.183568 on 0 procs for 10 steps with 512000 atoms

Performance: 4.707 ns/day, 5.099 hours/ns, 54.476 timesteps/s
80.3% CPU use with 1 MPI tasks x no OpenMP threads

MPI task timing breakdown:
Section |  min time  |  avg time  |  max time  |%varavg| %total
---------------------------------------------------------------
Pair    | 0.12644    | 0.12644    | 0.12644    |   0.0 | 68.88
Neigh   | 0          | 0          | 0          |   0.0 |  0.00
Comm    | 0.049611   | 0.049611   | 0.049611   |   0.0 | 27.03
Output  | 0.00012346 | 0.00012346 | 0.00012346 |   0.0 |  0.07
Modify  | 0.0033093  | 0.0033093  | 0.0033093  |  -nan |  1.80
Other   |            | 0.004085   |            |       |  2.23

Nlocal:    512000 ave 512000 max 512000 min
Histogram: 1 0 0 0 0 0 0 0 0 0
Nghost:    70245 ave 70245 max 70245 min
Histogram: 1 0 0 0 0 0 0 0 0 0
Neighs:    0 ave 0 max 0 min
Histogram: 1 0 0 0 0 0 0 0 0 0
FullNghs:  8.192e+06 ave 8.192e+06 max 8.192e+06 min
Histogram: 1 0 0 0 0 0 0 0 0 0

Total # of neighbors = 8192000
Ave neighs/atom = 16
Neighbor list builds = 0
Dangerous builds = 0

run             2420
Memory usage per processor = 74.3243 Mbytes
Step Temp E_pair E_mol TotEng Press 
      10    619.66723   -2345543.7            0   -2304533.5     12474.08 
    2430    488.02947   -2336843.1            0   -2304544.8   -3110.3736 
Loop time of 87.3653 on 0 procs for 2420 steps with 512000 atoms

Performance: 2.393 ns/day, 10.028 hours/ns, 27.700 timesteps/s
74.6% CPU use with 1 MPI tasks x no OpenMP threads

MPI task timing breakdown:
Section |  min time  |  avg time  |  max time  |%varavg| %total
---------------------------------------------------------------
Pair    | 70.772     | 70.772     | 70.772     |   0.0 | 81.01
Neigh   | 1.8228     | 1.8228     | 1.8228     |   0.0 |  2.09
Comm    | 13.681     | 13.681     | 13.681     |   0.0 | 15.66
Output  | 0.00012466 | 0.00012466 | 0.00012466 |   0.0 |  0.00
Modify  | 0.78634    | 0.78634    | 0.78634    |   0.0 |  0.90
Other   |            | 0.3031     |            |       |  0.35

Nlocal:    512000 ave 512000 max 512000 min
Histogram: 1 0 0 0 0 0 0 0 0 0
Nghost:    65549 ave 65549 max 65549 min
Histogram: 1 0 0 0 0 0 0 0 0 0
Neighs:    0 ave 0 max 0 min
Histogram: 1 0 0 0 0 0 0 0 0 0
FullNghs:  8.4363e+06 ave 8.4363e+06 max 8.4363e+06 min
Histogram: 1 0 0 0 0 0 0 0 0 0

Total # of neighbors = 8436302
Ave neighs/atom = 16.4772
Neighbor list builds = 87
Dangerous builds = 0
Total wall time: 0:01:29
