LAMMPS (10 Mar 2016)
package gpu 1
package gpu 1
# bulk Si via Tersoff

#include pak.kokkos

units		metal
atom_style	atomic

lattice		diamond 5.431
Lattice spacing in x,y,z = 5.431 5.431 5.431
region		box block 0 40 0 40 0 40
create_box	1 box
Created orthogonal box = (0 0 0) to (217.24 217.24 217.24)
  1 by 1 by 1 MPI processor grid
create_atoms	1 box
Created 512000 atoms

pair_style	tersoff
pair_coeff	* * Si.tersoff Si
mass            1 28.06

velocity	all create 1000.0 376847 loop geom

neighbor	1.0 bin
neigh_modify    delay 5 every 1

fix		1 all nve

timestep	0.001

run		10
Neighbor list info ...
  0 neighbor list requests
  update every 1 steps, delay 5 steps, check yes
  max neighbors/atom: 2000, page size: 100000
  master list distance cutoff = 4.2
  ghost atom cutoff = 7.4
  binsize = 2.1 -> bins = 104 104 104
Memory usage per processor = 99.5776 Mbytes
Step Temp E_pair E_mol TotEng Press 
       0         1000   -2370771.1            0     -2304590    7019.7882 
      10    619.66716   -2345543.5            0   -2304533.2    12474.272 
Loop time of 0.311515 on 1 procs for 10 steps with 512000 atoms

Performance: 2.774 ns/day, 8.653 hours/ns, 32.101 timesteps/s
96.8% CPU use with 1 MPI tasks x no OpenMP threads

MPI task timing breakdown:
Section |  min time  |  avg time  |  max time  |%varavg| %total
---------------------------------------------------------------
Pair    | 0.1343     | 0.1343     | 0.1343     |   0.0 | 43.11
Neigh   | 0          | 0          | 0          |   0.0 |  0.00
Comm    | 0.034854   | 0.034854   | 0.034854   |   0.0 | 11.19
Output  | 0.0028651  | 0.0028651  | 0.0028651  |   0.0 |  0.92
Modify  | 0.098494   | 0.098494   | 0.098494   |   0.0 | 31.62
Other   |            | 0.04101    |            |       | 13.16

Nlocal:    512000 ave 512000 max 512000 min
Histogram: 1 0 0 0 0 0 0 0 0 0
Nghost:    113091 ave 113091 max 113091 min
Histogram: 1 0 0 0 0 0 0 0 0 0
Neighs:    0 ave 0 max 0 min
Histogram: 1 0 0 0 0 0 0 0 0 0

Total # of neighbors = 0
Ave neighs/atom = 0
Neighbor list builds = 0
Dangerous builds = 0

run             2420
Memory usage per processor = 99.6101 Mbytes
Step Temp E_pair E_mol TotEng Press 
      10    619.66716   -2345543.5            0   -2304533.2    12474.272 
    2430    488.02903   -2336842.9            0   -2304544.6   -3110.2445 
Loop time of 91.4995 on 1 procs for 2420 steps with 512000 atoms

Performance: 2.285 ns/day, 10.503 hours/ns, 26.448 timesteps/s
93.3% CPU use with 1 MPI tasks x no OpenMP threads

MPI task timing breakdown:
Section |  min time  |  avg time  |  max time  |%varavg| %total
---------------------------------------------------------------
Pair    | 35.119     | 35.119     | 35.119     |   0.0 | 38.38
Neigh   | 0.30032    | 0.30032    | 0.30032    |   0.0 |  0.33
Comm    | 13.521     | 13.521     | 13.521     |   0.0 | 14.78
Output  | 0.0032927  | 0.0032927  | 0.0032927  |   0.0 |  0.00
Modify  | 28.415     | 28.415     | 28.415     |   0.0 | 31.05
Other   |            | 14.14      |            |       | 15.45

Nlocal:    512000 ave 512000 max 512000 min
Histogram: 1 0 0 0 0 0 0 0 0 0
Nghost:    113089 ave 113089 max 113089 min
Histogram: 1 0 0 0 0 0 0 0 0 0
Neighs:    0 ave 0 max 0 min
Histogram: 1 0 0 0 0 0 0 0 0 0

Total # of neighbors = 0
Ave neighs/atom = 0
Neighbor list builds = 87
Dangerous builds = 0

Please see the log.cite file for references relevant to this simulation

Total wall time: 0:01:33
