LAMMPS (10 Mar 2016)
package gpu 1
package gpu 1
# bulk Si via Tersoff

#include pak.kokkos

units		metal
atom_style	atomic

lattice		diamond 5.431
Lattice spacing in x,y,z = 5.431 5.431 5.431
region		box block 0 20 0 20 0 10
create_box	1 box
Created orthogonal box = (0 0 0) to (108.62 108.62 54.31)
  1 by 1 by 1 MPI processor grid
create_atoms	1 box
Created 32000 atoms

pair_style	tersoff
pair_coeff	* * Si.tersoff Si
mass            1 28.06

velocity	all create 1000.0 376847 loop geom

neighbor	1.0 bin
neigh_modify    delay 5 every 1

fix		1 all nve

timestep	0.001

thermo          100
run		1000000
Neighbor list info ...
  0 neighbor list requests
  update every 1 steps, delay 5 steps, check yes
  max neighbors/atom: 2000, page size: 100000
  master list distance cutoff = 4.2
  ghost atom cutoff = 7.4
  binsize = 2.1 -> bins = 52 52 26
Memory usage per processor = 9.96267 Mbytes
Step Temp E_pair E_mol TotEng Press 
       0         1000   -148173.22            0   -144037.03    7019.4512 
     100    430.57807   -145815.59            0   -144034.64    -14550.62 
     200    543.50154   -146282.52            0    -144034.5   -2111.4013 
     300    494.98007   -146081.56            0   -144034.23   -3957.6851 
     400    497.20027   -146090.69            0   -144034.17   -3083.3264 
     500    477.91566   -146010.85            0    -144034.1   -3175.8308 
     600    468.79542   -145973.15            0   -144034.12   -4942.9775 
     700    497.76185      -146093            0   -144034.16   -2378.1206 
     800    489.37241   -146057.76            0   -144033.62   -3810.9615 
     900    489.07972   -146056.54            0   -144033.61   -3243.5253 
    1000    483.24187    -146032.4            0   -144033.62   -3973.9103 
    1100    489.21522    -146057.1            0   -144033.61   -3234.2199 
    1200    487.28137   -146049.11            0   -144033.62   -3356.0701 
    1300    490.33151   -146061.74            0   -144033.63   -3637.0035 
    1400    487.34294   -146049.38            0   -144033.63   -3697.0937 
    1500     490.1254   -146060.89            0   -144033.64   -3457.3372 
    1600    488.17172   -146052.79            0   -144033.62   -3336.4738 
    1700    487.27762    -146049.1            0   -144033.63   -3556.0605 
    1800    487.99627   -146052.06            0   -144033.61    -3300.777 
    1900     486.1697    -146044.5            0   -144033.61   -3399.5796 
    2000    486.74457   -146046.89            0   -144033.62   -3537.9613 
    2100    489.38012   -146057.78            0   -144033.61   -3073.6168 
    2200    484.39329   -146037.16            0   -144033.61   -3565.8147 
    2300    488.86937   -146055.67            0   -144033.61   -3075.2456 
    2400    485.46387   -146041.59            0   -144033.62   -3467.7948 
    2500    488.68774   -146054.93            0   -144033.62   -3284.9865 
    2600    490.63924   -146063.01            0   -144033.63   -3112.7176 
    2700    482.49577   -146029.31            0   -144033.61   -3608.6736 
    2800    488.46503      -146054            0   -144033.61   -3127.7122 
    2900    486.00979   -146043.85            0   -144033.61   -3389.3062 
    3000    491.09487   -146064.91            0   -144033.64   -3575.8143 
    3100    489.82449   -146059.65            0   -144033.64   -3308.9122 
    3200    486.89663   -146047.53            0   -144033.63   -3325.2505 
    3300    489.74391    -146059.3            0   -144033.63   -3263.3454 
    3400    485.12815   -146040.21            0   -144033.62   -3557.7924 
    3500    490.55887   -146062.68            0   -144033.63    -3048.147 
    3600    487.31216   -146049.24            0   -144033.63   -3451.1972 
    3700    487.89052   -146051.63            0   -144033.62   -3396.0939 
    3800    487.61159   -146050.47            0   -144033.61   -2961.7139 
    3900    485.57106   -146042.04            0   -144033.62   -3525.1626 
    4000    488.26725   -146053.19            0   -144033.62   -3141.9659 
    4100    487.76298   -146051.11            0   -144033.63   -3304.0602 
    4200    484.21627   -146036.44            0   -144033.63   -3551.1176 
    4300    490.54695   -146062.63            0   -144033.63   -3127.7613 
    4400    487.69501   -146050.84            0   -144033.64   -3353.8273 
    4500    490.01857   -146060.44            0   -144033.63   -3100.2311 
    4600    483.77446    -146034.6            0   -144033.61   -3404.0075 
    4700    488.45702   -146053.96            0   -144033.61    -3030.234 
    4800    484.91428   -146039.32            0   -144033.62   -3398.9446 
    4900    486.88584   -146047.48            0   -144033.62   -3174.7392 
    5000    490.36197   -146061.86            0   -144033.63   -3000.5165 
    5100    483.10778   -146031.83            0   -144033.61   -3364.9658 
    5200    491.73714   -146067.56            0   -144033.63   -2892.6977 
    5300    483.76194   -146034.56            0   -144033.63     -3594.21 
    5400    490.04949   -146060.56            0   -144033.62   -2994.1444 
    5500    486.03558   -146043.96            0   -144033.62   -3235.7861 
    5600    486.02006   -146043.89            0   -144033.61   -3278.8483 
    5700    488.60724   -146054.59            0   -144033.62   -3085.0669 
    5800     488.5306   -146054.29            0   -144033.63   -3336.1115 
    5900     488.9677   -146056.09            0   -144033.63   -3281.6249 
    6000    490.11434   -146060.84            0   -144033.63   -3125.3833 
    6100    487.26318   -146049.05            0   -144033.63    -3346.351 
    6200    485.07463   -146039.98            0   -144033.62   -3113.3888 
    6300    486.64951   -146046.48            0   -144033.61   -2971.3098 
    6400     487.9509   -146051.89            0   -144033.63    -3160.343 
    6500    486.89675   -146047.51            0   -144033.61    -3122.078 
    6600    489.90976      -146060            0   -144033.64   -3202.1849 
    6700    486.00348   -146043.83            0   -144033.62   -3359.3164 
    6800    488.94714      -146056            0   -144033.62   -3021.6391 
    6900    487.86047   -146051.52            0   -144033.63   -3115.1882 
    7000    490.91652   -146064.18            0   -144033.65   -3056.4818 
    7100    488.80587   -146055.44            0   -144033.64   -3232.5508 
    7200    489.30316   -146057.47            0   -144033.62    -2888.754 
    7300    485.42338   -146041.43            0   -144033.63   -3363.8897 
    7400    489.86427   -146059.81            0   -144033.63   -3038.6565 
    7500    488.34154   -146053.52            0   -144033.64   -3227.7544 
    7600    489.34845   -146057.66            0   -144033.62   -2962.0262 
    7700    487.74424   -146051.04            0   -144033.63   -3199.8598 
    7800    487.63864   -146050.59            0   -144033.62   -3026.7527 
    7900    486.66658   -146046.57            0   -144033.62   -3157.0405 
    8000    488.76343   -146055.24            0   -144033.62   -2919.7828 
    8100    485.02757   -146039.77            0    -144033.6   -3107.2621 
    8200     484.6128   -146038.06            0   -144033.61   -3209.0555 
    8300    486.71024   -146046.74            0   -144033.61   -3076.8211 
    8400    487.97917   -146051.99            0   -144033.62   -3004.7261 
    8500     485.0231   -146039.75            0    -144033.6   -3109.4858 
    8600    484.33681   -146036.92            0    -144033.6   -3066.1492 
    8700    489.40411   -146057.91            0   -144033.64   -3063.5097 
    8800    485.84497   -146043.17            0   -144033.62   -3029.0514 
    8900      485.371   -146041.21            0   -144033.62   -3146.2437 
    9000    488.11521   -146052.55            0   -144033.61   -2737.2527 
    9100    483.82213   -146034.78            0    -144033.6   -3094.3594 
    9200    488.99257    -146056.2            0   -144033.63    -2891.075 
    9300    485.22309   -146040.62            0   -144033.64    -3355.412 
    9400    488.58631   -146054.52            0   -144033.63   -2897.9031 
    9500    488.15991   -146052.76            0   -144033.63     -2898.97 
    9600    485.85587   -146043.23            0   -144033.64   -3332.2402 
    9700    488.71377   -146055.06            0   -144033.64   -2945.5118 
    9800    491.84215      -146068            0   -144033.65   -2937.2722 
    9900      487.457   -146049.85            0   -144033.63   -3181.8453 
   10000    485.96941   -146043.68            0   -144033.62   -3058.2894 
   10100    486.05861   -146044.05            0   -144033.62   -3076.5758 
   10200    487.54914   -146050.22            0   -144033.62   -3101.7869 
   10300    485.59422   -146042.14            0   -144033.63   -3035.2651 
   10400    487.84607   -146051.45            0   -144033.63   -2969.5211 
   10500    486.00978   -146043.86            0   -144033.63   -3052.4332 
   10600    487.87801   -146051.58            0   -144033.63   -2941.2344 
   10700    487.62543   -146050.55            0   -144033.64   -3117.0575 
   10800    489.92381   -146060.06            0   -144033.63    -2888.568 
   10900    487.43519   -146049.76            0   -144033.63   -3215.8511 
   11000    486.13855   -146044.38            0   -144033.62   -3077.8226 
   11100     486.3731   -146045.35            0   -144033.62   -3121.8691 
   11200    487.00942   -146047.99            0   -144033.63   -3161.2594 
   11300    488.39502   -146053.72            0   -144033.63   -3100.2654 
   11400     490.1903   -146061.16            0   -144033.64   -2831.3856 
   11500    481.39143   -146024.74            0   -144033.61   -3289.8532 
   11600     487.4589   -146049.85            0   -144033.63   -2985.0019 
   11700    490.75411   -146063.49            0   -144033.63   -2964.2285 
   11800    484.70245   -146038.43            0   -144033.61   -3011.1196 
   11900    484.94269   -146039.43            0   -144033.61   -2912.9118 
   12000    487.30053    -146049.2            0   -144033.63   -2944.6104 
   12100    488.20353   -146052.94            0   -144033.63   -3108.5245 
   12200    490.01067   -146060.41            0   -144033.63    -3051.756 
   12300    483.61146   -146033.93            0   -144033.62   -3288.3084 
   12400    486.35228   -146045.26            0   -144033.61   -3084.4617 
   12500    487.02994   -146048.08            0   -144033.62   -3013.6048 
   12600    487.37876   -146049.52            0   -144033.63   -3041.7437 
   12700    488.23924   -146053.09            0   -144033.64   -3191.9027 
   12800     487.6807   -146050.77            0   -144033.62   -2936.2087 
   12900    488.15476   -146052.74            0   -144033.63   -3044.6437 
   13000    484.93045   -146039.39            0   -144033.62   -3170.0827 
   13100    488.09056   -146052.46            0   -144033.62   -2967.5223 
   13200    486.37883   -146045.38            0   -144033.63   -3000.3049 
   13300    486.37338   -146045.37            0   -144033.63   -3071.5279 
   13400    487.27994   -146049.11            0   -144033.62   -2916.5999 
   13500    486.15464   -146044.46            0   -144033.63   -2964.6634 
   13600    487.78591   -146051.22            0   -144033.64   -3063.3738 
   13700    489.09608   -146056.64            0   -144033.64   -3116.1851 
   13800    488.12714   -146052.62            0   -144033.63   -2975.3551 
   13900    486.93274   -146047.68            0   -144033.63   -3029.6767 
   14000    487.63638   -146050.59            0   -144033.63   -2929.2167 
   14100    486.76023   -146046.97            0   -144033.63   -3132.5609 
   14200    488.77154   -146055.29            0   -144033.64   -2851.8406 
   14300    487.30241   -146049.21            0   -144033.63   -3116.0744 
   14400    486.22253   -146044.74            0   -144033.63   -3151.8648 
   14500    485.43136   -146041.46            0   -144033.62   -2916.2781 
   14600    488.36865   -146053.64            0   -144033.65   -3109.7762 
   14700     488.5501   -146054.37            0   -144033.63   -2998.2707 
   14800    484.77433   -146038.75            0   -144033.63   -3150.8089 
   14900    488.56277   -146054.42            0   -144033.63   -3019.8658 
   15000    485.00573    -146039.7            0   -144033.63    -3280.085 
   15100      488.745   -146055.19            0   -144033.64   -3016.7106 
   15200    489.56423   -146058.58            0   -144033.65   -3008.5213 
   15300    488.30531   -146053.36            0   -144033.64   -3154.9318 
   15400    484.75757   -146038.67            0   -144033.62   -3214.4747 
   15500    489.32767   -146057.59            0   -144033.64   -2947.7845 
   15600    482.80665    -146030.6            0   -144033.61   -3192.7638 
   15700    488.54009   -146054.33            0   -144033.63   -2953.2817 
   15800    488.01856   -146052.18            0   -144033.64   -2981.7078 
   15900    484.03998   -146035.71            0   -144033.62   -3138.3306 
   16000    488.52221   -146054.25            0   -144033.63   -2931.1363 
   16100    484.35153      -146037            0   -144033.63   -3259.9571 
   16200    489.44885   -146058.09            0   -144033.63   -2895.3605 
   16300    486.39228   -146045.45            0   -144033.64   -3131.1048 
   16400    486.34954   -146045.26            0   -144033.62    -3013.482 
   16500    487.48463   -146049.97            0   -144033.63    -2926.807 
   16600    484.80194   -146038.87            0   -144033.63    -3227.248 
   16700    486.59692   -146046.28            0   -144033.62   -2807.8268 
   16800    488.22592   -146053.04            0   -144033.64   -2941.3662 
   16900     487.2165   -146048.86            0   -144033.63   -3060.0013 
   17000    487.21286   -146048.85            0   -144033.64   -2993.8301 
   17100    485.56084   -146042.01            0   -144033.64   -3024.4137 
   17200    491.69274    -146067.4            0   -144033.66   -2962.3373 
   17300    486.86887   -146047.42            0   -144033.64   -3101.7235 
   17400     484.4331   -146037.32            0   -144033.61   -2762.1003 
   17500    487.72986   -146050.99            0   -144033.64   -2932.1963 
   17600    488.05305   -146052.34            0   -144033.65   -2914.6014 
   17700    489.98915   -146060.36            0   -144033.67    -2884.832 
   17800    487.65849   -146050.71            0   -144033.66   -3036.8357 
   17900    491.22416   -146065.46            0   -144033.66   -2860.5177 
   18000    487.35823   -146049.47            0   -144033.66   -3166.9926 
   18100     488.5611   -146054.43            0   -144033.65     -2839.52 
   18200    486.45876   -146045.72            0   -144033.63   -3088.0875 
   18300    486.72068    -146046.8            0   -144033.63   -2929.1773 
   18400    488.83297   -146055.55            0   -144033.64   -3082.4198 
   18500    487.07535   -146048.29            0   -144033.65    -3107.842 
   18600    488.44426   -146053.94            0   -144033.64   -2883.5628 
   18700    484.86827   -146039.12            0   -144033.61   -2859.1852 
   18800    483.75373   -146034.52            0   -144033.62   -3014.0539 
   18900    489.21546   -146057.13            0   -144033.64   -2959.2891 
   19000    491.07244   -146064.83            0   -144033.66   -2883.9693 
   19100    491.39141   -146066.16            0   -144033.67   -2882.4374 
   19200    486.22357   -146044.75            0   -144033.63   -3064.8511 
   19300    484.35014   -146036.99            0   -144033.62   -2904.7426 
   19400    487.48327   -146049.96            0   -144033.63   -2796.0087 
   19500    483.71575   -146034.36            0   -144033.62    -2939.553 
   19600    486.72993   -146046.84            0   -144033.63    -2912.902 
   19700    486.97719   -146047.87            0   -144033.64   -2819.7236 
   19800     485.5139    -146041.8            0   -144033.62   -2814.4496 
   19900    486.71841    -146046.8            0   -144033.64   -2841.7714 
   20000    486.76944   -146047.01            0   -144033.63   -2910.3374 
   20100    487.27738   -146049.11            0   -144033.64   -2971.6307 
   20200    487.18996   -146048.74            0   -144033.63   -3031.9435 
   20300    486.80714   -146047.16            0   -144033.63   -2962.0139 
   20400    486.53778   -146046.06            0   -144033.65   -3189.2625 
   20500    489.20531   -146057.09            0   -144033.64   -2841.4817 
   20600    487.78132   -146051.21            0   -144033.65   -3201.4765 
   20700    488.90972   -146055.86            0   -144033.64   -2865.7969 
   20800    482.70576   -146030.18            0   -144033.61   -3048.1466 
   20900    488.42308   -146053.84            0   -144033.62   -2816.1368 
   21000    485.51877   -146041.83            0   -144033.63   -3058.7004 
   21100    487.19323   -146048.76            0   -144033.63    -2987.677 
   21200    486.99563   -146047.95            0   -144033.64    -3017.228 
   21300    490.96304   -146064.38            0   -144033.66   -2931.4067 
   21400    485.40216   -146041.35            0   -144033.64   -3208.6781 
   21500    489.43166   -146058.03            0   -144033.64   -2934.7493 
   21600    485.08734   -146040.05            0   -144033.63   -3028.2598 
   21700    489.10089   -146056.66            0   -144033.65   -2907.0059 
   21800     488.4494   -146053.95            0   -144033.63   -2885.5205 
   21900    488.28998   -146053.31            0   -144033.65   -3086.7612 
   22000     487.6752   -146050.75            0   -144033.63   -2853.9491 
   22100    487.12131   -146048.47            0   -144033.64   -2990.1788 
   22200    488.62729   -146054.71            0   -144033.65   -2960.2933 
   22300    488.12092    -146052.6            0   -144033.64   -3007.3146 
   22400    488.10149   -146052.52            0   -144033.64   -2950.1482 
   22500    485.92119   -146043.49            0   -144033.63   -3059.3841 
   22600    489.35145   -146057.69            0   -144033.64   -2720.1882 
   22700    482.91082   -146031.03            0   -144033.62    -3060.088 
   22800    487.07214   -146048.27            0   -144033.64   -2913.3266 
   22900    484.57826   -146037.93            0   -144033.62   -3009.1781 
   23000    487.98763   -146052.05            0   -144033.64   -2983.5218 
   23100    488.81277   -146054.65            0   -144032.82   -2888.1059 
   23200    486.99544   -146047.13            0   -144032.82   -3029.3312 
   23300    486.32556   -146044.36            0   -144032.82   -2981.7292 
   23400    488.50471   -146053.38            0   -144032.83   -2945.0457 
   23500    488.34159   -146052.69            0   -144032.82   -2818.8544 
   23600     484.4615   -146036.65            0   -144032.82   -3198.2748 
   23700    488.53131   -146053.47            0   -144032.81   -2784.7408 
   23800    485.13496   -146039.43            0   -144032.82   -3012.2506 
   23900    484.87975   -146038.37            0   -144032.81   -2947.7702 
   24000    488.70164   -146054.18            0   -144032.82   -2924.9563 
   24100    485.74897   -146041.97            0   -144032.81   -3101.0813 
   24200    488.97758   -146055.34            0   -144032.83   -2917.4417 
   24300    489.69936   -146058.33            0   -144032.84    -2991.038 
   24400    490.51516    -146061.7            0   -144032.84   -3041.7311 
   24500    487.70186   -146050.05            0   -144032.82   -2857.6861 
   24600    488.18061   -146052.05            0   -144032.83   -3190.4141 
   24700    490.23048   -146060.52            0   -144032.83   -2967.3118 
   24800    486.80829   -146046.35            0   -144032.82   -3041.0303 
   24900    488.55029   -146053.56            0   -144032.82   -2932.0888 
   25000    485.47596   -146040.83            0    -144032.8   -2940.9851 
   25100    485.91049   -146042.65            0   -144032.82   -3163.7525 
   25200    487.37315    -146048.7            0   -144032.83   -3034.5072 
   25300    488.88259   -146054.94            0   -144032.83   -2848.3237 
   25400    487.53587   -146049.37            0   -144032.83   -3145.5631 
   25500    488.34949   -146052.73            0   -144032.82    -2903.059 
   25600     486.0013   -146043.02            0   -144032.82   -3051.4352 
   25700    489.12961   -146055.96            0   -144032.82   -2990.4185 
   25800    489.37738      -146057            0   -144032.84   -2938.9828 
   25900    488.53688   -146053.52            0   -144032.84   -2923.6892 
   26000     490.1404   -146060.16            0   -144032.84   -2811.1965 
   26100    487.34742   -146048.58            0   -144032.82   -2926.0332 
   26200    486.88939   -146046.69            0   -144032.82   -2912.0131 
   26300    485.90246    -146042.6            0   -144032.81   -2885.4963 
   26400    487.90841    -146050.9            0   -144032.82   -2890.1212 
   26500    485.84564   -146041.89            0   -144032.34   -3013.3962 
   26600    487.92761   -146050.51            0   -144032.35   -2901.8226 
   26700    488.94652   -146054.73            0   -144032.36   -2831.1897 
   26800    488.00314   -146050.83            0   -144032.35   -2981.9345 
   26900    487.65022   -146049.37            0   -144032.35   -2965.0686 
   27000    489.52336   -146057.11            0   -144032.35    -2808.078 
   27100    486.91377   -146046.32            0   -144032.35   -2880.0973 
   27200    484.95161   -146038.19            0   -144032.34   -2906.9038 
   27300    488.51151   -146052.91            0   -144032.33   -2610.5887 
   27400    485.67082   -146041.18            0   -144032.35   -3035.4869 
   27500    486.32442   -146043.87            0   -144032.34   -2812.1038 
   27600      488.981   -146054.88            0   -144032.36   -2861.2952 
   27700    488.70646   -146053.74            0   -144032.36   -2895.5886 
   27800    487.94263   -146050.58            0   -144032.36   -2964.3253 
   27900    486.63325   -146045.15            0   -144032.34   -2752.2267 
   28000    487.09009   -146047.04            0   -144032.34   -2802.3592 
   28100    490.74259   -146062.17            0   -144032.37    -2973.992 
   28200    487.18548   -146047.43            0   -144032.33   -2926.9454 
   28300    487.04453   -146046.86            0   -144032.35   -2956.4621 
   28400      491.825   -146066.66            0   -144032.37   -2946.7002 
   28500    485.71871   -146041.36            0   -144032.33   -3001.1698 
   28600    483.86263   -146033.68            0   -144032.33   -3015.0816 
   28700    491.96507   -146067.22            0   -144032.36   -2847.6879 
   28800    487.78873   -146049.94            0   -144032.35    -2947.477 
   28900    487.69986   -146049.56            0   -144032.34   -3032.4666 
   29000    489.19421   -146055.76            0   -144032.36   -2865.1127 
   29100     489.3355   -146056.35            0   -144032.36   -3115.3904 
   29200    487.90517   -146050.41            0   -144032.34   -2964.9356 
   29300    484.27438   -146035.38            0   -144032.32   -3171.5481 
   29400    487.65532   -146049.37            0   -144032.34   -2961.5878 
   29500    486.22417   -146043.45            0   -144032.33   -3039.8864 
   29600     488.7677   -146053.98            0   -144032.34   -3027.3281 
   29700    488.01832   -146050.88            0   -144032.34   -3007.8812 
   29800    488.49433   -146052.86            0   -144032.35   -3017.3061 
   29900     487.3472    -146048.1            0   -144032.34   -3132.2456 
   30000    489.21664   -146055.84            0   -144032.35   -3016.1535 
   30100    487.39832   -146048.31            0   -144032.33   -3011.9344 
   30200    486.74223    -146045.6            0   -144032.34   -3012.1437 
   30300    485.80922   -146041.74            0   -144032.33   -2995.4429 
   30400    487.59015    -146049.1            0   -144032.33   -3038.3049 
   30500    489.88317   -146058.61            0   -144032.36    -2939.385 
   30600    487.01791   -146046.75            0   -144032.35   -3260.1383 
   30700    490.88477   -146062.76            0   -144032.36   -3023.6347 
   30800    488.58313   -146053.23            0   -144032.35   -3122.7872 
   30900    489.75218   -146058.06            0   -144032.35    -2994.654 
   31000    490.13371   -146059.64            0   -144032.36   -3055.8248 
   31100    488.05983   -146051.07            0   -144032.36   -3333.3795 
   31200    489.28984   -146056.15            0   -144032.35   -2994.0118 
   31300    487.91789   -146050.48            0   -144032.35   -3158.8962 
   31400    487.94259   -146050.57            0   -144032.34   -2961.9549 
   31500    485.40129   -146040.05            0   -144032.33   -3180.8376 
   31600    489.13879   -146055.52            0   -144032.34   -2995.3878 
   31700    486.16979   -146043.23            0   -144032.33   -3067.6036 
   31800     487.1726   -146047.38            0   -144032.34   -3106.6928 
   31900    488.75958   -146053.95            0   -144032.35   -2904.6028 
   32000    488.21719   -146051.72            0   -144032.35   -3173.6431 
   32100    486.12724   -146043.06            0   -144032.34   -2962.1938 
   32200    485.88256   -146042.04            0   -144032.33   -3127.7349 
   32300    487.29343   -146047.88            0   -144032.34   -3184.5286 
   32400    489.47134   -146056.89            0   -144032.35   -3216.5974 
   32500    486.93626    -146046.4            0   -144032.34   -3257.1298 
   32600    487.24774   -146047.69            0   -144032.33   -3084.0094 
   32700    489.08119   -146055.29            0   -144032.36    -3304.487 
   32800    489.52755   -146057.13            0   -144032.34   -2932.3264 
   32900    486.96737   -146046.54            0   -144032.35   -3190.3416 
   33000    490.11338   -146059.56            0   -144032.35   -2968.7842 
   33100    488.26385   -146051.91            0   -144032.35    -3211.201 
   33200    489.03374   -146055.08            0   -144032.35   -3014.0472 
   33300    489.87878   -146058.59            0   -144032.35   -3018.3209 
   33400    486.29683   -146043.76            0   -144032.34   -2998.0769 
   33500    488.49366   -146052.85            0   -144032.34   -2973.0344 
   33600    486.82506   -146045.95            0   -144032.34   -3248.6407 
   33700    489.75434   -146058.07            0   -144032.35   -2963.1763 
   33800     486.4847   -146044.54            0   -144032.35   -3137.9183 
   33900    487.18954   -146047.44            0   -144032.33   -2961.3798 
   34000    484.81371   -146037.61            0   -144032.33   -3165.1055 
   34100    489.22795   -146055.89            0   -144032.35   -3092.2796 
   34200    489.12943   -146055.48            0   -144032.35   -3069.3899 
   34300    485.74063   -146041.46            0   -144032.34   -3169.9791 
   34400    489.59114   -146057.38            0   -144032.34   -2832.7583 
   34500    483.34476   -146031.53            0   -144032.32   -2996.8896 
   34600    487.49113    -146048.7            0   -144032.34   -3085.2161 
   34700    485.39839   -146040.03            0   -144032.33   -2998.5738 
   34800    488.96659    -146054.8            0   -144032.34   -2881.0149 
   34900    485.52126   -146040.53            0   -144032.32   -3083.6493 
   35000    486.03769   -146042.67            0   -144032.33   -2920.3263 
   35100    484.95298   -146038.18            0   -144032.32   -2967.9413 
   35200     490.0667   -146059.36            0   -144032.35   -2841.1296 
   35300    485.23342   -146039.35            0   -144032.33   -3054.0465 
   35400     489.2125   -146055.82            0   -144032.34    -2961.742 
   35500    485.19978   -146039.21            0   -144032.32   -2920.4163 
   35600    485.27112   -146039.51            0   -144032.33   -3171.4683 
   35700    490.10378    -146059.5            0   -144032.34   -2703.0164 
   35800    485.65512    -146041.1            0   -144032.33   -3158.9064 
   35900    487.38463   -146048.25            0   -144032.33   -2800.1049 
   36000    482.33062   -146027.32            0   -144032.31   -3006.7923 
   36100    487.82757   -146050.09            0   -144032.34   -2818.4515 
   36200    487.36331   -146048.18            0   -144032.35   -3063.2496 
   36300    486.04639   -146042.71            0   -144032.33   -2952.3222 
   36400    487.16282   -146047.33            0   -144032.33   -2825.3856 
   36500    487.19239   -146047.46            0   -144032.34    -2914.916 
   36600    487.48536   -146048.67            0   -144032.34   -2915.7187 
   36700     486.5405   -146044.77            0   -144032.35   -3024.5016 
   36800    489.19224   -146055.74            0   -144032.34    -2742.992 
   36900    485.75112    -146041.5            0   -144032.34   -2956.8337 
   37000    487.54908   -146048.94            0   -144032.34   -2894.0414 
   37100    488.47985   -146052.79            0   -144032.34   -2773.0233 
   37200    486.89582   -146046.24            0   -144032.34   -2855.9195 
   37300    485.10343   -146038.82            0   -144032.34   -2927.2584 
   37400    485.82865   -146041.81            0   -144032.33   -2816.1599 
   37500    487.70305   -146049.57            0   -144032.33    -2755.874 
   37600    485.16888   -146039.09            0   -144032.34   -3001.7593 
   37700    485.11166   -146038.84            0   -144032.33   -2857.6276 
   37800    488.92984   -146054.65            0   -144032.34   -2848.0813 
   37900    489.37461    -146056.5            0   -144032.35   -2965.4466 
   38000    489.90064   -146058.68            0   -144032.36   -2858.5189 
   38100    487.41945   -146048.41            0   -144032.34   -2762.4603 
   38200    487.66732   -146049.44            0   -144032.35   -2910.9422 
   38300    486.76403   -146045.69            0   -144032.34   -3037.7213 
   38400    487.29224   -146047.87            0   -144032.34   -2901.7729 
   38500    486.62656   -146045.11            0   -144032.32   -2794.0425 
   38600    487.42864   -146048.45            0   -144032.35   -3065.5451 
   38700    486.70664   -146045.45            0   -144032.34   -2899.6505 
   38800    488.71839   -146053.79            0   -144032.35   -2898.1435 
   38900    488.65689   -146053.54            0   -144032.36   -2865.1257 
   39000    486.01975   -146042.62            0   -144032.34   -2802.3576 
   39100    487.71915   -146049.66            0   -144032.35   -3037.2023 
   39200    487.13067   -146047.21            0   -144032.34   -2832.9104 
   39300    486.98768   -146046.62            0   -144032.35   -2945.3599 
   39400    491.29681   -146064.46            0   -144032.36   -2802.6077 
   39500    487.89364   -146050.38            0   -144032.35   -3016.8212 
   39600     489.5107   -146057.07            0   -144032.36   -2955.7534 
   39700    485.41379    -146040.1            0   -144032.33   -2976.0174 
   39800    488.78105   -146054.05            0   -144032.35   -2926.8225 
   39900    484.97258   -146038.25            0   -144032.31   -2829.9186 
   40000     483.5328   -146032.31            0   -144032.32   -3029.6111 
   40100    485.20039   -146039.21            0   -144032.33    -2894.875 
   40200    483.34796   -146031.54            0   -144032.31   -2906.5633 
   40300    485.87597   -146042.01            0   -144032.33   -2937.4401 
   40400    488.87479   -146054.43            0   -144032.35   -2971.5715 
   40500    489.42716   -146056.73            0   -144032.36   -3077.4665 
   40600    490.13363   -146059.67            0   -144032.38   -3214.9174 
   40700    489.86389   -146058.52            0   -144032.35   -2983.3227 
   40800    488.12924   -146051.34            0   -144032.34   -2937.9649 
   40900    488.66068   -146053.55            0   -144032.35    -3111.292 
   41000    488.61373   -146053.36            0   -144032.36   -3023.2411 
   41100    486.85401   -146046.05            0   -144032.33   -2871.7853 
   41200    485.14991      -146039            0   -144032.33   -3090.1048 
   41300    487.07069   -146046.96            0   -144032.34    -2994.172 
   41400    488.71161   -146053.76            0   -144032.35   -3040.9759 
   41500    486.74228   -146045.59            0   -144032.33   -2926.9453 
   41600    486.23108   -146043.49            0   -144032.34    -3073.875 
   41700    487.92767   -146050.51            0   -144032.34   -2957.4111 
   41800    490.38839   -146060.69            0   -144032.35   -2932.1228 
   41900    486.25346   -146043.59            0   -144032.35   -3147.5357 
   42000     486.4294    -146044.3            0   -144032.34   -3039.5022 
   42100    487.22654   -146047.59            0   -144032.33   -2862.5199 
   42200    489.69308   -146057.81            0   -144032.35   -2994.2366 
   42300    484.66958   -146037.02            0   -144032.34   -3173.6735 
   42400    488.05852   -146051.04            0   -144032.34   -2913.3751 
   42500    487.45213   -146048.54            0   -144032.34   -3026.8841 
   42600    486.73537   -146045.57            0   -144032.34   -3082.3707 
   42700    487.80018      -146050            0   -144032.36    -3138.176 
   42800    488.79033   -146054.07            0   -144032.34   -2958.3887 
   42900     487.1105   -146047.12            0   -144032.33   -3034.0511 
   43000    489.45841   -146056.84            0   -144032.35   -2925.7002 
   43100    487.61092    -146049.2            0   -144032.34   -3048.2614 
   43200    488.04093   -146050.98            0   -144032.35   -3150.3867 
   43300    486.69959   -146045.43            0   -144032.34   -3038.7004 
   43400    490.02502   -146059.19            0   -144032.35   -3073.0711 
   43500    486.18514   -146043.31            0   -144032.35   -3098.6448 
   43600    487.47935   -146048.65            0   -144032.34   -3046.6172 
   43700    487.34413   -146048.09            0   -144032.34   -3091.9281 
   43800    487.96471   -146050.66            0   -144032.35   -3145.6608 
   43900    487.14736   -146047.28            0   -144032.34   -3028.7879 
   44000    485.63432   -146041.02            0   -144032.34   -3218.2741 
   44100    490.32657   -146060.44            0   -144032.35   -3029.4054 
   44200     487.2813   -146047.84            0   -144032.35   -3088.1734 
   44300    490.05778   -146059.32            0   -144032.34   -2876.1971 
   44400    484.85073   -146037.77            0   -144032.33   -3167.4079 
   44500    489.10036   -146055.36            0   -144032.34   -2950.8399 
   44600    486.40045   -146044.17            0   -144032.32   -3076.7384 
   44700    486.92263   -146046.35            0   -144032.34   -3058.0299 
   44800    488.23074   -146051.77            0   -144032.35   -3165.8582 
   44900    488.61749   -146053.36            0   -144032.34   -2977.6278 
   45000    489.55652   -146057.25            0   -144032.35   -3078.5069 
   45100    488.06026   -146051.07            0   -144032.36   -3277.5074 
   45200    486.14057   -146043.11            0   -144032.34   -3125.5061 
   45300    487.81117   -146050.03            0   -144032.35   -3136.4023 
   45400    491.28035   -146064.39            0   -144032.36   -3062.4967 
   45500    484.68975   -146037.11            0   -144032.33    -3079.266 
   45600    489.78605    -146058.2            0   -144032.35   -3030.1324 
   45700     486.3975   -146044.17            0   -144032.34   -3032.0882 
   45800    487.68158   -146049.49            0   -144032.34   -3072.7895 
   45900    487.16842   -146047.37            0   -144032.34    -3097.175 
   46000    487.79724   -146049.95            0   -144032.33   -3002.9596 
   46100    486.29323   -146043.74            0   -144032.34   -3189.9194 
   46200     485.7432   -146041.47            0   -144032.34   -3307.9639 
   46300    487.21266   -146047.53            0   -144032.32   -2847.9352 
   46400     488.4347    -146052.6            0   -144032.34   -3264.9468 
   46500    487.43303   -146048.46            0   -144032.34   -2977.8139 
   46600    486.63762   -146045.16            0   -144032.34   -3106.5546 
   46700    486.94191   -146046.16            0   -144032.07   -3257.7094 
   46800    489.87496   -146058.31            0   -144032.09   -2983.2558 
   46900     485.9336   -146041.99            0   -144032.07   -3209.4862 
   47000    488.06101   -146050.79            0   -144032.07   -3068.2024 
   47100    489.28971   -146055.89            0   -144032.09    -3105.483 
   47200    487.87023      -146050            0   -144032.08   -3079.2635 
   47300    484.36928   -146035.49            0   -144032.05   -2975.7668 
   47400    488.61139   -146053.09            0    -144032.1   -3056.0741 
   47500    491.47263   -146064.93            0   -144032.11   -3148.2177 
   47600    486.47413   -146044.23            0   -144032.08   -3091.1489 
   47700    487.70376   -146049.32            0   -144032.08   -3136.2013 
   47800    486.52803   -146044.45            0   -144032.07    -3138.781 
   47900    489.39098    -146056.3            0   -144032.08   -3017.5681 
   48000    487.54421   -146048.65            0   -144032.07   -3112.1581 
   48100    487.60137   -146048.89            0   -144032.08   -3182.9869 
   48200    487.66194   -146049.14            0   -144032.07   -3051.6371 
   48300    485.30337   -146039.37            0   -144032.06    -3193.475 
   48400    487.71958   -146049.38            0   -144032.08   -3049.8799 
   48500    486.47191   -146044.22            0   -144032.07   -3064.3695 
   48600    490.13449   -146059.39            0   -144032.09   -3052.5665 
   48700    487.34106   -146047.83            0   -144032.09   -3359.4359 
   48800    491.08958   -146063.33            0   -144032.08     -3014.82 
   48900    488.22912   -146051.49            0   -144032.08   -3097.9706 
   49000     487.4103    -146048.1            0   -144032.08   -3155.1009 
   49100    486.87236   -146045.86            0   -144032.06   -2860.2028 
   49200    486.25897   -146043.34            0   -144032.07   -3130.0485 
   49300    487.10761   -146046.84            0   -144032.07   -2832.2724 
   49400    486.10263   -146042.69            0   -144032.08    -3233.125 
   49500    489.13141   -146055.22            0   -144032.07   -2974.3887 
   49600     486.2017    -146043.1            0   -144032.07   -3246.3085 
   49700    489.52269   -146056.85            0   -144032.09   -2982.8928 
   49800    487.94271   -146050.31            0   -144032.08   -3010.1991 
   49900     486.9544   -146046.22            0   -144032.08   -3131.5885 
   50000    489.50649   -146056.79            0    -144032.1   -3143.8854 
   50100    488.83527      -146054            0   -144032.08   -2933.5744 
   50200    484.74831   -146037.08            0   -144032.06   -3124.2941 
   50300    487.78829   -146049.66            0   -144032.07   -2951.4801 
   50400    487.40707    -146048.1            0   -144032.09   -3227.1739 
   50500    488.20082   -146051.39            0   -144032.09   -3079.7483 
   50600    486.31621   -146043.57            0   -144032.07   -3164.8784 
   50700    488.76414    -146053.7            0   -144032.08   -2925.4069 
   50800    486.88643   -146045.93            0   -144032.07   -3115.9049 
   50900     487.9954   -146050.53            0   -144032.08   -3148.1078 
   51000    489.06684   -146054.97            0    -144032.1   -3162.5407 
   51100    487.88512   -146050.07            0   -144032.08   -3054.6763 
   51200    487.18455   -146047.18            0   -144032.09   -3288.1028 
   51300    489.94077   -146058.59            0    -144032.1   -3125.0751 
   51400    488.87637   -146054.19            0    -144032.1   -3119.8804 
   51500    488.40237   -146052.23            0    -144032.1   -2962.5182 
   51600    486.81136   -146045.64            0   -144032.09   -3247.8303 
   51700    489.65204   -146057.39            0   -144032.09   -2937.1873 
   51800    488.31179   -146051.84            0   -144032.09   -3068.4581 
   51900    488.25621   -146051.62            0    -144032.1   -3071.3056 
   52000    487.54826   -146048.69            0   -144032.09   -3122.3729 
   52100    489.61897   -146057.25            0   -144032.09   -2941.6676 
   52200    485.38922   -146039.74            0   -144032.08   -3175.2921 
   52300    486.63652    -146044.9            0   -144032.08   -3012.5643 
   52400    488.59376      -146053            0   -144032.08   -2901.7311 
   52500    485.17868   -146038.88            0   -144032.09   -3117.9221 
   52600    488.43273   -146052.35            0    -144032.1   -3000.1999 
   52700    488.10761   -146050.99            0   -144032.08   -3055.2673 
   52800    486.68104   -146045.08            0   -144032.08    -2905.151 
   52900    486.13558   -146042.83            0   -144032.08   -3088.4888 
   53000    487.84967   -146049.93            0   -144032.09   -2961.5536 
   53100    486.02215   -146042.36            0   -144032.07   -3027.1297 
   53200    486.14892    -146042.9            0   -144032.09    -3044.059 
   53300    489.04114   -146054.86            0   -144032.09   -2908.1535 
   53400    486.69661   -146045.17            0    -144032.1   -3155.7299 
   53500    488.70132   -146053.46            0   -144032.09   -2893.1778 
   53600    488.61786    -146053.1            0   -144032.08   -2781.5816 
   53700     486.1694   -146042.97            0   -144032.08   -3229.6379 
   53800    487.67921   -146049.22            0   -144032.08   -2942.8339 
   53900    488.40676   -146052.24            0   -144032.09    -2992.121 
   54000    488.69148   -146053.42            0   -144032.09   -3027.9905 
   54100    486.57316   -146044.63            0   -144032.07   -2895.4159 
   54200    488.66596   -146053.31            0   -144032.09   -3023.0079 
   54300    484.95945   -146037.96            0   -144032.08   -3077.7845 
   54400    487.77742   -146049.62            0   -144032.08   -2782.5072 
   54500    489.73556   -146057.75            0    -144032.1   -2977.3414 
   54600    487.20107   -146047.25            0    -144032.1   -3073.8763 
   54700    490.56408   -146061.17            0    -144032.1   -2960.7033 
   54800    488.01463   -146050.61            0   -144032.09   -2905.3681 
   54900    486.22486    -146043.2            0   -144032.08   -3052.5205 
   55000    488.83437   -146054.01            0   -144032.09    -2820.317 
   55100    486.38011   -146043.86            0    -144032.1   -2999.9821 
   55200    487.65616   -146049.12            0   -144032.08    -2791.478 
   55300    489.20178   -146055.53            0   -144032.09   -2942.0354 
   55400    487.23478   -146047.38            0   -144032.08   -3011.9273 
   55500    487.86244   -146049.99            0   -144032.09   -2947.0701 
   55600     489.5559      -146057            0    -144032.1   -2908.6853 
   55700    488.56308   -146052.89            0    -144032.1   -3035.1182 
   55800    488.17337   -146051.27            0   -144032.09   -2951.6054 
   55900    487.58365   -146048.83            0   -144032.09   -2931.8982 
   56000    489.11916   -146055.19            0   -144032.09   -2889.3776 
   56100    486.48888   -146044.29            0   -144032.08   -2939.8268 
   56200    486.70713   -146045.19            0   -144032.08   -2777.2549 
   56300    488.25364   -146051.61            0   -144032.09    -3074.332 
   56400    487.21821   -146047.32            0   -144032.09   -2878.8733 
   56500    486.95598   -146046.22            0   -144032.08   -2872.5316 
   56600    486.03491   -146042.43            0    -144032.1   -3024.4854 
   56700    486.69462   -146045.14            0   -144032.08   -2752.5508 
   56800    486.73345   -146045.31            0   -144032.09   -3030.1322 
   56900    486.50362   -146044.35            0   -144032.08   -2725.3775 
   57000    485.97396   -146042.16            0   -144032.08   -2913.3716 
   57100     487.1293   -146046.95            0   -144032.09   -2879.6328 
   57200    486.41974      -146044            0   -144032.08   -2768.3619 
   57300    486.25765   -146043.34            0   -144032.08   -2825.6738 
   57400    487.62615   -146049.01            0   -144032.09   -2924.9175 
   57500    486.29486   -146043.49            0   -144032.08   -2720.8219 
   57600    487.02848   -146046.53            0   -144032.08   -2741.7912 
   57700    484.73954   -146037.05            0   -144032.07   -2863.6647 
   57800     487.5759    -146048.8            0   -144032.09   -2801.8696 
   57900    487.50741   -146048.52            0   -144032.09   -2985.2501 
   58000    486.54579   -146044.52            0   -144032.08    -2893.791 
   58100    488.26242   -146051.64            0   -144032.09    -2911.275 
   58200    489.82189    -146058.1            0    -144032.1   -3009.0875 
   58300    487.26731   -146047.51            0   -144032.08   -2907.1651 
   58400    486.94242   -146046.17            0   -144032.08   -2930.8924 
   58500    488.95138   -146054.49            0   -144032.09    -2896.615 
   58600    487.66962    -146049.2            0   -144032.11   -3014.1172 
   58700    488.55947   -146052.87            0   -144032.09   -2842.4309 
   58800    486.21808   -146043.18            0   -144032.08   -2965.8798 
   58900    485.36709   -146039.64            0   -144032.07   -2913.5586 
   59000    486.83946   -146045.75            0   -144032.09   -2899.4521 
   59100    488.99732   -146054.69            0    -144032.1   -2916.7712 
   59200    486.83438   -146045.74            0   -144032.09   -2985.7797 
   59300    487.03431   -146046.56            0   -144032.09   -2942.2666 
   59400    488.39799   -146052.21            0    -144032.1   -3020.0358 
   59500    490.04041      -146059            0    -144032.1   -2840.8778 
   59600    485.55252   -146040.42            0   -144032.08   -3086.1884 
   59700    486.72325   -146045.25            0   -144032.07   -2825.8115 
   59800    486.26955   -146043.39            0   -144032.08    -3020.863 
   59900    487.10248   -146046.83            0   -144032.08   -2946.6512 
   60000    487.62188   -146048.99            0   -144032.09   -3014.6972 
   60100    487.80431   -146049.74            0   -144032.09   -2937.3329 
   60200    489.18992   -146055.49            0    -144032.1   -2888.8637 
   60300    485.85305   -146041.67            0   -144032.09   -3029.3904 
   60400    488.14359   -146051.14            0   -144032.09    -2792.259 
   60500    484.68296   -146036.81            0   -144032.07    -3102.415 
   60600    489.60499   -146057.19            0   -144032.09   -2777.2349 
   60700    487.75595   -146049.55            0    -144032.1   -2937.1987 
   60800    487.60836   -146048.94            0    -144032.1   -3040.4334 
   60900     488.1941   -146051.35            0   -144032.08   -2820.7859 
   61000    485.32487   -146039.48            0   -144032.08   -3005.2309 
   61100    486.69331   -146045.15            0   -144032.09    -2899.558 
   61200    485.86358   -146041.71            0   -144032.09   -3011.8789 
   61300    487.53338    -146048.6            0   -144032.07   -2764.8984 
   61400    486.32314    -146043.6            0   -144032.08   -3057.9387 
   61500    488.49399    -146052.6            0   -144032.09   -2964.9791 
   61600     490.8025   -146062.16            0    -144032.1   -2897.6083 
   61700    488.44514   -146052.39            0   -144032.09   -3018.7898 
   61800    485.45428   -146040.01            0   -144032.08   -2918.4061 
   61900    485.97398   -146042.17            0   -144032.09   -3107.6659 
   62000    488.27357   -146051.68            0   -144032.08   -2815.5886 
   62100    488.22678    -146051.5            0    -144032.1   -2953.8199 
   62200     485.9894   -146042.24            0   -144032.09   -3019.4494 
   62300    488.21708   -146051.44            0   -144032.08   -2898.2352 
   62400    486.51602   -146044.41            0   -144032.08   -3009.9905 
   62500    488.53688   -146052.78            0    -144032.1   -2858.3263 
   62600     485.8846    -146041.8            0   -144032.08   -3138.1961 
   62700    487.21601   -146047.31            0   -144032.09   -3103.4301 
   62800     490.7055   -146061.75            0    -144032.1   -2961.4244 
   62900    486.94035   -146046.16            0   -144032.08   -3086.8973 
   63000    487.90821   -146049.55            0   -144031.46   -3105.3199 
   63100     486.4102   -146043.33            0   -144031.44   -3020.3275 
   63200    487.16173   -146046.45            0   -144031.45   -2965.1104 
   63300    484.79949   -146036.67            0   -144031.44   -3012.5776 
   63400    488.04264   -146050.08            0   -144031.44   -2880.4467 
   63500    487.69917   -146048.67            0   -144031.45   -3133.8824 
   63600    488.07261   -146050.21            0   -144031.45   -2994.3024 
   63700    488.52745   -146052.11            0   -144031.46    -3154.355 
   63800    489.56865   -146056.43            0   -144031.47   -2928.4198 
   63900    488.94541   -146053.85            0   -144031.48    -3218.892 
   64000    488.68765   -146052.78            0   -144031.47   -3047.5038 
   64100    488.06552    -146050.2            0   -144031.46   -3017.0018 
   64200     486.7387   -146044.69            0   -144031.45   -2966.2833 
   64300    489.53938    -146056.3            0   -144031.47   -2993.4305 
   64400    487.65146   -146048.48            0   -144031.46   -3031.1289 
   64500    487.38346   -146047.38            0   -144031.47   -3074.5987 
   64600    489.46297   -146055.97            0   -144031.45   -2892.2628 
   64700     485.7277   -146040.52            0   -144031.46   -3114.4744 
   64800    489.68096    -146056.9            0   -144031.48   -2941.5567 
   64900    490.06311   -146058.46            0   -144031.47    -2927.843 
   65000    486.63275   -146044.26            0   -144031.45   -3018.6697 
   65100    488.60143   -146052.41            0   -144031.46   -2959.5681 
   65200    487.50843   -146047.89            0   -144031.46   -3238.6225 
   65300    487.90553   -146049.53            0   -144031.45   -2848.7296 
   65400    487.62597   -146048.37            0   -144031.46   -3079.7603 
   65500    488.74183   -146052.99            0   -144031.46   -3004.6614 
   65600    485.60743   -146040.02            0   -144031.45   -3064.2893 
   65700    489.11722   -146054.54            0   -144031.46   -2986.9334 
   65800    487.69734   -146048.65            0   -144031.44   -2934.8987 
   65900     486.4654   -146043.57            0   -144031.45   -3110.2322 
   66000    490.16917    -146058.9            0   -144031.46   -3030.6037 
   66100    488.53355   -146052.13            0   -144031.46   -3082.1499 
   66200    490.03333   -146058.34            0   -144031.47   -3102.3177 
   66300    486.45229   -146043.51            0   -144031.45   -3083.8583 
   66400     490.3647   -146059.72            0   -144031.47   -3074.2007 
   66500    487.49145   -146047.82            0   -144031.46   -3082.0301 
   66600    488.49192   -146051.95            0   -144031.45   -2987.8221 
   66700    487.02148   -146045.87            0   -144031.45   -3036.0178 
   66800    487.91896   -146049.59            0   -144031.46    -3032.672 
   66900    487.74418   -146048.85            0   -144031.45   -2901.8187 
   67000    490.44672   -146060.07            0   -144031.48   -3128.2888 
   67100    488.86043   -146053.48            0   -144031.45   -2963.1579 
   67200    487.18616   -146046.54            0   -144031.44   -2852.4137 
   67300    486.88017   -146045.28            0   -144031.44   -2971.1553 
   67400      485.967    -146041.5            0   -144031.45   -3125.5733 
   67500    489.65513   -146056.78            0   -144031.47   -3070.4781 
   67600    488.07609   -146050.24            0   -144031.46   -3053.3185 
   67700    486.13074   -146042.18            0   -144031.45   -3243.6353 
   67800    488.62606   -146052.52            0   -144031.46    -3089.166 
   67900    487.99067   -146049.88            0   -144031.45   -3117.1984 
   68000    487.68882   -146048.64            0   -144031.46   -3146.7902 
   68100    486.00438   -146041.66            0   -144031.45   -3033.9298 
   68200    489.24557   -146055.08            0   -144031.46   -3041.6738 
   68300    485.38871   -146039.12            0   -144031.46   -3227.1052 
   68400     488.5573   -146052.23            0   -144031.46   -2845.0214 
   68500     489.7215   -146057.06            0   -144031.48   -2972.0274 
   68600    488.49738   -146051.99            0   -144031.47    -3051.672 
   68700    485.38676   -146039.09            0   -144031.44   -3061.4457 
   68800    488.87089   -146053.52            0   -144031.45   -2833.9358 
   68900    483.95246   -146033.16            0   -144031.44   -2956.0405 
   69000    488.03359   -146050.07            0   -144031.47   -3143.8918 
   69100    485.35455   -146038.95            0   -144031.43   -2841.7069 
   69200    488.34866   -146051.37            0   -144031.46   -2884.8809 
   69300    486.82789   -146045.08            0   -144031.46   -3132.3052 
   69400    487.04404   -146045.96            0   -144031.45   -2949.4502 
   69500    486.82202   -146045.04            0   -144031.45   -2967.8918 
   69600    486.90916    -146045.4            0   -144031.45   -3065.0402 
   69700    487.23331   -146046.75            0   -144031.46   -3174.4107 
   69800    488.19444   -146050.71            0   -144031.45   -2881.8572 
   69900    488.61529   -146052.47            0   -144031.46   -2979.2285 
   70000    487.24716   -146046.81            0   -144031.46   -3029.9472 
   70100    487.47333   -146047.75            0   -144031.47    -3033.336 
   70200      487.902   -146049.52            0   -144031.46   -3132.1675 
   70300    490.98947    -146062.3            0   -144031.47   -3061.5571 
   70400    486.59757   -146044.11            0   -144031.45    -3035.959 
   70500    486.71138   -146044.58            0   -144031.45   -2962.3301 
   70600    487.45763   -146047.67            0   -144031.45   -3049.6497 
   70700    487.26989    -146046.9            0   -144031.45   -2982.0664 
   70800    485.86847    -146041.1            0   -144031.45   -3226.5763 
   70900    490.46612   -146060.12            0   -144031.46   -2916.2897 
   71000    484.79001   -146036.63            0   -144031.45    -3096.294 
   71100    487.79037   -146049.05            0   -144031.45   -3034.5452 
   71200    488.24904   -146050.94            0   -144031.45   -2811.2292 
   71300    483.38789   -146030.81            0   -144031.42   -2982.4775 
   71400    487.51969   -146047.92            0   -144031.45   -2868.2546 
   71500    486.48215   -146043.63            0   -144031.44   -2987.9651 
   71600    487.13477   -146046.33            0   -144031.45    -3063.927 
   71700     485.8401   -146040.97            0   -144031.44   -2794.1212 
   71800    486.65311   -146044.35            0   -144031.46   -3140.2472 
   71900    489.34482   -146055.48            0   -144031.46   -2933.6848 
   72000    487.90005    -146049.5            0   -144031.45   -3053.3266 
   72100    485.23097   -146038.45            0   -144031.44   -2923.6477 
   72200    488.87923   -146053.57            0   -144031.47   -3101.8555 
   72300    488.50212      -146052            0   -144031.46   -2987.7714 
   72400    485.77321    -146040.7            0   -144031.45    -3025.575 
   72500    488.16648    -146050.6            0   -144031.44   -2889.1026 
   72600    489.08688   -146054.42            0   -144031.46   -2924.4815 
   72700    486.67114   -146044.44            0   -144031.47   -3176.3167 
   72800    491.06375   -146062.61            0   -144031.47   -2930.9581 
   72900     487.4358   -146047.58            0   -144031.45   -3047.2808 
   73000    488.05924   -146050.17            0   -144031.46   -3040.4446 
   73100    488.04221    -146050.1            0   -144031.46   -3249.7162 
   73200    488.43748   -146051.74            0   -144031.46   -3012.1677 
   73300    489.91808   -146057.87            0   -144031.47    -2976.105 
   73400    488.17242   -146050.64            0   -144031.46   -3114.5017 
   73500    486.43822   -146043.45            0   -144031.44    -2969.171 
   73600    487.03177    -146045.9            0   -144031.44   -2955.7672 
   73700    482.77363   -146028.28            0   -144031.43   -3328.6883 
   73800    487.11019   -146046.22            0   -144031.43   -2835.7263 
   73900    487.46843   -146047.73            0   -144031.46   -3203.6527 
   74000    488.65086   -146052.61            0   -144031.46   -2970.4192 
   74100    485.40979   -146039.18            0   -144031.43   -3084.9633 
   74200    484.97076   -146037.38            0   -144031.45   -3288.2277 
   74300    488.77724   -146053.13            0   -144031.45   -3006.3244 
   74400    486.42195   -146043.39            0   -144031.45    -3159.433 
   74500    487.90815   -146049.55            0   -144031.46   -3057.9957 
   74600    485.82361    -146040.9            0   -144031.43   -3068.4631 
   74700    486.75261   -146044.74            0   -144031.44   -2949.8729 
   74800    486.47291   -146043.59            0   -144031.44   -3182.2495 
   74900    486.25698    -146042.7            0   -144031.45   -3099.6327 
   75000    487.02515   -146045.87            0   -144031.44   -3076.0214 
   75100     487.8151   -146049.15            0   -144031.45   -3113.6132 
   75200    484.90484    -146037.1            0   -144031.44   -3303.6534 
   75300    489.19726   -146054.87            0   -144031.46   -3113.1947 
   75400    489.15935   -146054.72            0   -144031.46   -3053.2521 
   75500    487.70583    -146048.7            0   -144031.46   -3184.4312 
   75600    490.72146    -146061.2            0   -144031.48   -3032.3769 
   75700    488.96416   -146053.93            0   -144031.48   -3213.9487 
   75800    489.41114   -146055.77            0   -144031.47   -3186.4391 
   75900    488.86142   -146053.49            0   -144031.47    -3072.812 
   76000    487.79433   -146049.06            0   -144031.45    -3035.375 
   76100    484.87097   -146036.96            0   -144031.44   -3204.2204 
   76200    487.64564   -146048.45            0   -144031.45   -2947.0996 
   76300     488.3671   -146051.44            0   -144031.45   -3140.3888 
   76400    486.54746   -146043.91            0   -144031.45    -3124.598 
   76500    487.81972   -146049.18            0   -144031.46   -3022.7548 
   76600    487.66701   -146048.53            0   -144031.45   -3065.2186 
   76700    488.07769   -146050.24            0   -144031.46   -3154.8616 
   76800    486.38575   -146043.24            0   -144031.45   -3093.3468 
   76900    488.43962   -146051.74            0   -144031.46    -3046.894 
   77000     488.0554   -146050.15            0   -144031.46   -3149.5573 
   77100    489.15801   -146054.72            0   -144031.47   -3005.8956 
   77200    483.27271   -146030.35            0   -144031.44   -3259.5883 
   77300    490.82753   -146061.64            0   -144031.48   -2976.6121 
   77400    490.95359   -146062.16            0   -144031.48   -3123.3839 
   77500    486.68853    -146044.5            0   -144031.46   -3233.2749 
   77600    489.58492   -146056.48            0   -144031.46   -3060.3486 
   77700    489.26768   -146055.17            0   -144031.46   -3080.8988 
   77800    486.42408    -146043.4            0   -144031.45   -3218.7733 
   77900    487.46496    -146047.7            0   -144031.45   -2985.8805 
   78000    489.14545   -146054.66            0   -144031.46   -3083.8231 
   78100    487.30373   -146047.05            0   -144031.47   -3190.0926 
   78200    489.06554   -146054.33            0   -144031.46   -3005.5286 
   78300    490.04281   -146058.39            0   -144031.48   -3095.1257 
   78400     487.3725   -146047.34            0   -144031.47   -3171.7199 
   78500     490.0607   -146058.45            0   -144031.46   -2827.4473 
   78600    488.20905   -146050.79            0   -144031.46   -2954.7155 
   78700    487.75591   -146048.92            0   -144031.47   -3256.5175 
   78800    486.96894   -146045.66            0   -144031.46   -2983.1677 
   78900    487.63889   -146048.42            0   -144031.45   -2851.4382 
   79000    485.63904   -146040.15            0   -144031.45   -3019.1583 
   79100    487.00513    -146045.8            0   -144031.46   -3057.0395 
   79200    488.73456   -146052.97            0   -144031.47   -2950.6125 
   79300    487.77109   -146048.98            0   -144031.46   -2965.4273 
   79400    487.14877   -146046.39            0   -144031.45   -2733.4904 
   79500    485.86407   -146041.08            0   -144031.45    -3128.157 
   79600     487.6943   -146048.66            0   -144031.46   -2972.3151 
   79700    489.43196   -146055.85            0   -144031.47   -2891.9103 
   79800    487.40544   -146047.46            0   -144031.46   -3057.8856 
   79900    488.64495   -146052.59            0   -144031.46    -2839.288 
   80000    487.98827   -146049.89            0   -144031.47   -3117.0392 
   80100    489.35611   -146055.55            0   -144031.47   -3084.3131 
   80200    488.62282    -146052.5            0   -144031.46   -2929.7294 
   80300    489.91407   -146057.84            0   -144031.46   -2831.0144 
   80400    485.57705    -146039.9            0   -144031.46   -3045.9193 
   80500    487.38568   -146047.37            0   -144031.45   -2815.1228 
   80600    484.93456   -146037.23            0   -144031.44   -2922.8971 
   80700    485.61028   -146040.04            0   -144031.46   -3028.1741 
   80800    489.59425   -146056.51            0   -144031.45   -2727.2203 
   80900    484.17652    -146034.1            0   -144031.46   -3050.5176 
   81000     489.6683   -146056.83            0   -144031.47   -2766.2575 
   81100    485.36755   -146039.03            0   -144031.46   -3102.1772 
   81200    487.26835   -146046.89            0   -144031.46   -2852.4758 
   81300    489.19966    -146054.9            0   -144031.47   -2919.3044 
   81400    488.22843   -146050.87            0   -144031.46   -2897.7055 
   81500    486.15856   -146042.31            0   -144031.46   -2986.8708 
   81600    486.79266   -146044.92            0   -144031.45    -2800.295 
   81700    488.67459   -146052.72            0   -144031.47   -2827.6599 
   81800    487.86226   -146049.36            0   -144031.47   -2849.0486 
   81900    486.01586   -146041.72            0   -144031.46   -2927.6161 
   82000    487.91418   -146049.57            0   -144031.47   -2834.5875 
   82100    487.65314    -146048.5            0   -144031.47   -2906.0952 
   82200    487.58348    -146048.2            0   -144031.45   -2858.6677 
   82300    487.26245   -146046.88            0   -144031.47   -2898.8381 
   82400    486.70653   -146044.57            0   -144031.45   -2847.5264 
   82500     485.4301   -146039.29            0   -144031.46   -2967.2167 
   82600    488.99065   -146054.02            0   -144031.46   -2759.5628 
   82700    485.04958   -146037.72            0   -144031.46   -3009.9238 
   82800    488.17948   -146050.67            0   -144031.47   -2846.2622 
   82900     490.0028   -146058.22            0   -144031.47   -2718.7197 
   83000    487.95518   -146049.75            0   -144031.47   -2929.4012 
   83100    487.68366   -146048.62            0   -144031.46   -2939.4551 
   83200     488.8144    -146053.3            0   -144031.47   -2830.0519 
   83300    485.28991   -146038.71            0   -144031.45   -3031.8778 
   83400    488.43665   -146051.73            0   -144031.46     -2783.61 
   83500     486.8055   -146044.99            0   -144031.47   -2932.9581 
   83600    489.01255   -146054.13            0   -144031.48   -2862.7513 
   83700    489.12941   -146054.61            0   -144031.47   -2978.3159 
   83800    486.93124   -146045.51            0   -144031.46   -2926.8092 
   83900    489.65581   -146056.78            0   -144031.47   -2821.6121 
   84000    487.36863   -146047.32            0   -144031.46   -2973.1186 
   84100    486.23308   -146042.61            0   -144031.46    -2917.136 
   84200    487.33714   -146047.17            0   -144031.45   -2809.5542 
   84300     485.3637   -146039.01            0   -144031.45   -2974.6927 
   84400    489.43152   -146055.85            0   -144031.47   -2837.0815 
   84500    489.58042   -146056.47            0   -144031.47   -2753.8419 
   84600    486.88833   -146045.34            0   -144031.48   -2975.5177 
   84700     489.3147   -146055.37            0   -144031.47   -2964.7412 
   84800    489.07176   -146054.37            0   -144031.47    -2951.916 
   84900    489.22244   -146054.99            0   -144031.47   -2909.5109 
   85000    489.11097   -146054.53            0   -144031.47    -2964.499 
   85100    487.31685    -146047.1            0   -144031.46   -2767.4544 
   85200    489.41129   -146055.78            0   -144031.48   -2950.8855 
   85300     487.2424   -146046.79            0   -144031.46   -2939.2194 
   85400    490.36802   -146059.73            0   -144031.47   -2812.5038 
   85500    484.20883   -146034.23            0   -144031.44   -3033.5683 
   85600    490.14975   -146058.82            0   -144031.46   -2794.0992 
   85700    488.02185   -146050.02            0   -144031.47   -2993.0614 
   85800    487.48612   -146047.81            0   -144031.47   -2974.4724 
   85900    487.35059   -146047.24            0   -144031.46   -2896.1581 
   86000    489.01164   -146054.11            0   -144031.46   -2793.5934 
   86100    488.71544   -146052.88            0   -144031.46   -2998.0361 
   86200    486.69608   -146044.54            0   -144031.47   -3014.4271 
   86300    488.93639   -146053.79            0   -144031.45   -2779.2696 
   86400    486.93141   -146045.51            0   -144031.47   -2992.2033 
   86500    487.01326   -146045.83            0   -144031.45    -2899.073 
   86600    486.41184   -146043.35            0   -144031.45    -3084.531 
   86700    487.52194   -146047.92            0   -144031.44   -2842.9969 
   86800     487.2426   -146046.79            0   -144031.46   -3115.2897 
   86900    489.23195   -146055.03            0   -144031.47    -3072.928 
   87000    488.54304   -146052.17            0   -144031.46   -2857.0293 
   87100    486.27143   -146042.77            0   -144031.46   -3128.5917 
   87200    486.09074   -146042.02            0   -144031.45    -2868.049 
   87300    486.10669   -146042.09            0   -144031.46   -2965.2471 
   87400    487.07956   -146046.12            0   -144031.46   -2999.0245 
   87500    488.05327   -146050.15            0   -144031.46   -3039.2767 
   87600    488.52201   -146052.09            0   -144031.46   -2945.1484 
   87700    486.82342   -146045.06            0   -144031.47   -3158.5109 
   87800    491.56595   -146064.68            0   -144031.47   -2915.8387 
   87900     488.5347   -146052.14            0   -144031.46   -2986.2899 
   88000     485.1636    -146038.2            0   -144031.46   -3182.9678 
   88100    487.99909   -146049.92            0   -144031.46   -2834.0008 
   88200    485.69919    -146040.4            0   -144031.45   -2969.7592 
   88300    485.93188   -146041.36            0   -144031.45   -2890.4943 
   88400    485.78487   -146040.76            0   -144031.46   -2992.7429 
   88500    488.25557   -146050.98            0   -144031.46   -2929.0831 
   88600    485.62531   -146040.09            0   -144031.45   -2824.1229 
   88700    485.83246   -146040.95            0   -144031.45    -3098.656 
   88800    488.55657   -146052.23            0   -144031.46   -2801.2464 
   88900    488.28853   -146051.13            0   -144031.47    -3121.966 
   89000    487.44943   -146047.65            0   -144031.47   -3031.0966 
   89100    487.72082   -146048.78            0   -144031.47   -2955.8271 
   89200    490.45765   -146060.11            0   -144031.48    -2859.883 
   89300    484.88003   -146037.02            0   -144031.46   -3044.1718 
   89400    489.01875   -146054.14            0   -144031.47   -2772.6228 
   89500    487.52566   -146047.98            0   -144031.48   -3141.0364 
   89600    489.24251   -146055.07            0   -144031.46   -2800.6745 
   89700    485.77083    -146040.7            0   -144031.46   -2901.9247 
   89800    486.83622   -146045.12            0   -144031.47   -2993.6386 
   89900    487.23426   -146046.76            0   -144031.46   -2905.0227 
   90000    488.40712   -146051.62            0   -144031.48   -3004.6148 
   90100    491.55196   -146064.65            0    -144031.5   -2896.8628 
   90200    490.36274   -146059.73            0   -144031.49   -2977.5919 
   90300    487.19846   -146046.64            0   -144031.49   -3210.1563 
   90400    490.05554   -146058.45            0   -144031.48   -2979.2951 
   90500    486.27705    -146042.8            0   -144031.46   -3014.2103 
   90600    490.59459   -146060.68            0   -144031.48   -2981.8138 
   90700    485.34584   -146038.95            0   -144031.46    -3107.698 
   90800    489.50037   -146056.14            0   -144031.47   -2959.5897 
   90900    488.63287   -146052.55            0   -144031.47    -3065.072 
   91000    486.74579   -146044.73            0   -144031.46   -3061.4258 
   91100    487.32426   -146047.13            0   -144031.46   -2968.5302 
   91200    487.19139   -146046.58            0   -144031.46   -3138.3675 
   91300    486.89043   -146045.34            0   -144031.47   -3022.9741 
   91400    486.52595   -146043.84            0   -144031.47   -3255.6086 
   91500     490.5558   -146060.52            0   -144031.48   -3004.4919 
   91600    488.27258   -146051.06            0   -144031.47    -3073.267 
   91700    487.87685   -146049.43            0   -144031.47   -3171.8044 
   91800    488.91962   -146053.75            0   -144031.48   -3021.8104 
   91900    487.77013   -146048.99            0   -144031.48   -3138.8502 
   92000    489.54913   -146056.35            0   -144031.48    -3087.868 
   92100    489.38635   -146055.67            0   -144031.47   -3114.6863 
   92200    488.64668   -146052.61            0   -144031.47   -3032.7267 
   92300    481.88787   -146024.62            0   -144031.44   -3225.5976 
   92400    489.73601   -146057.11            0   -144031.46   -2953.2768 
   92500    486.62702   -146044.25            0   -144031.47   -3238.1456 
   92600    488.73778   -146052.98            0   -144031.47   -3014.7738 
   92700    487.94393    -146049.7            0   -144031.47    -3091.016 
   92800    487.28476   -146046.97            0   -144031.46   -3193.7597 
   92900    488.08151   -146050.25            0   -144031.45   -2836.7268 
   93000    487.25849   -146046.89            0   -144031.49   -3245.8009 
   93100     491.1341   -146062.92            0   -144031.49   -3037.8363 
   93200     489.4515   -146055.96            0   -144031.49   -3215.9778 
   93300     490.2031   -146059.06            0   -144031.49   -3007.2578 
   93400    486.46322   -146043.56            0   -144031.46   -3136.9311 
   93500    486.03166   -146041.78            0   -144031.46   -3127.7634 
   93600    487.81184   -146049.15            0   -144031.47   -3008.1895 
   93700     487.1015   -146046.21            0   -144031.46   -3247.7202 
   93800    490.97475   -146062.25            0   -144031.49   -3120.0235 
   93900    487.11289   -146046.27            0   -144031.47   -3254.3804 
   94000    488.85278   -146053.45            0   -144031.46   -3019.3824 
   94100    488.65965   -146052.67            0   -144031.48   -3195.1868 
   94200    487.44454   -146047.64            0   -144031.48   -3030.5957 
   94300    487.14817   -146046.42            0   -144031.48   -3010.8409 
   94400    486.60394   -146044.15            0   -144031.46   -3178.9751 
   94500    486.15019   -146042.27            0   -144031.45   -2985.4377 
   94600    487.02712   -146045.88            0   -144031.44   -2996.4482 
   94700    485.41596   -146039.23            0   -144031.46   -3045.1948 
   94800    489.10625   -146054.52            0   -144031.48   -3043.7272 
   94900     487.8124   -146049.17            0   -144031.48    -3083.765 
   95000    490.26618   -146059.33            0   -144031.49   -3004.1641 
   95100    487.72662    -146048.8            0   -144031.47   -3205.4675 
   95200    486.19775   -146042.47            0   -144031.46   -3091.9721 
   95300    489.16001   -146054.74            0   -144031.48   -3019.1606 
   95400    489.09515   -146054.48            0   -144031.49    -3195.294 
   95500    489.34025   -146055.49            0   -144031.48   -3048.0671 
   95600    489.80063   -146057.38            0   -144031.47   -3088.1538 
   95700    487.28899      -146047            0   -144031.47    -3213.083 
   95800    491.60096   -146064.85            0   -144031.49   -2990.6273 
   95900    484.32532   -146034.73            0   -144031.47   -3337.1998 
   96000    489.96193   -146058.05            0   -144031.47   -2795.2667 
   96100    487.36835   -146047.32            0   -144031.47   -3148.0939 
   96200    487.13153   -146046.33            0   -144031.46   -3116.4986 
   96300    486.67544   -146044.45            0   -144031.46   -3119.0759 
   96400    487.25494   -146046.84            0   -144031.46   -3022.9227 
   96500    489.02892    -146054.2            0   -144031.48   -3317.3809 
   96600    489.50112   -146056.13            0   -144031.46   -3004.8023 
   96700     486.7497   -146044.78            0   -144031.48   -3458.1487 
   96800     489.5262   -146056.25            0   -144031.47   -3001.0549 
   96900    489.91608   -146057.87            0   -144031.48   -3157.4221 
   97000    488.80207   -146053.27            0   -144031.49   -3229.5557 
   97100    490.91273   -146062.01            0   -144031.49   -3078.9412 
   97200    487.02739   -146045.91            0   -144031.47   -3040.8285 
   97300    487.72361   -146048.79            0   -144031.47    -2925.032 
   97400    486.64411   -146044.32            0   -144031.47   -3068.3164 
   97500    487.76615   -146048.98            0   -144031.49   -3121.8683 
   97600    489.62278   -146056.65            0   -144031.48   -2968.2346 
   97700    487.53123      -146048            0   -144031.48   -3066.8626 
   97800    487.94965   -146049.73            0   -144031.47   -3102.3788 
   97900    487.97045   -146049.82            0   -144031.48   -3181.6182 
   98000    488.67361   -146052.74            0   -144031.49    -3157.651 
   98100    487.09325   -146046.19            0   -144031.48   -3236.5644 
   98200    489.53502   -146056.28            0   -144031.47   -2837.2857 
   98300    484.81742   -146036.76            0   -144031.46   -3209.7532 
   98400    485.28511   -146038.69            0   -144031.46   -2854.3881 
   98500    487.42061   -146047.55            0   -144031.48   -3131.0909 
   98600    489.16713   -146054.77            0   -144031.48   -2948.2542 
   98700    489.24562    -146055.1            0   -144031.49   -3098.4948 
   98800    488.42536    -146051.7            0   -144031.48   -3163.4283 
   98900    488.36835   -146051.47            0   -144031.48   -3018.9986 
   99000    487.37062   -146047.34            0   -144031.48   -3089.1219 
   99100    489.30427   -146055.35            0   -144031.49   -2965.7757 
   99200    488.60266   -146052.44            0   -144031.48   -3137.0321 
   99300    488.41325   -146051.67            0   -144031.49   -3184.5287 
   99400    486.92154   -146045.48            0   -144031.47   -2996.8285 
   99500    488.86538   -146053.52            0   -144031.48   -3000.0769 
   99600    485.49005   -146039.54            0   -144031.46   -3241.0677 
   99700    485.80879   -146040.86            0   -144031.46   -3037.5823 
   99800    488.38441   -146051.53            0   -144031.47    -2974.112 
   99900    489.18907   -146054.87            0   -144031.49   -3138.4192 
  100000    491.01366   -146062.42            0   -144031.49   -3016.9978 
  100100    487.33411    -146047.2            0   -144031.49   -3169.9101 
  100200    486.21631   -146042.56            0   -144031.47   -3183.8768 
  100300     484.6411   -146036.03            0   -144031.46   -3098.1573 
  100400    487.68261   -146048.62            0   -144031.47   -2948.5331 
  100500    484.66407   -146036.13            0   -144031.46   -3189.5462 
  100600    485.94194   -146041.42            0   -144031.47   -3375.5825 
  100700    488.21059   -146050.81            0   -144031.47   -3008.8942 
  100800    486.30691   -146042.93            0   -144031.47   -3219.6458 
  100900    489.41358   -146055.78            0   -144031.47   -2946.4645 
  101000    485.11701   -146038.02            0   -144031.48   -3374.9748 
  101100     489.9257    -146057.9            0   -144031.47   -2937.5821 
  101200     486.6877   -146044.51            0   -144031.47   -3170.4369 
  101300    488.78662    -146053.2            0   -144031.48   -3061.6884 
  101400    491.03478   -146062.52            0    -144031.5   -3113.8477 
  101500    486.57053   -146044.03            0   -144031.48   -3215.7003 
  101600    486.83714   -146045.12            0   -144031.47   -3130.7073 
  101700    487.32045   -146047.12            0   -144031.47   -3033.2199 
  101800    486.74844   -146044.75            0   -144031.47   -3167.0786 
  101900    486.81074   -146045.02            0   -144031.47   -3096.1678 
  102000    487.00293   -146045.82            0   -144031.48   -3108.8833 
  102100    489.58525   -146056.51            0   -144031.49    -3007.211 
  102200     488.4624   -146051.86            0   -144031.48   -3063.8714 
  102300    489.81958   -146057.49            0    -144031.5   -3179.7656 
  102400      488.651   -146052.65            0   -144031.49    -3120.831 
  102500    488.37581    -146051.5            0   -144031.48   -3040.5871 
  102600    488.75187   -146053.06            0   -144031.49    -3001.527 
  102700    490.69801   -146061.12            0    -144031.5   -3104.7806 
  102800    488.40812   -146051.63            0   -144031.48   -3000.7637 
  102900    488.43646   -146051.75            0   -144031.48   -3230.0573 
  103000    490.85565   -146061.76            0   -144031.48   -2983.1048 
  103100    486.23486   -146042.63            0   -144031.47   -3080.7525 
  103200     484.0495   -146033.58            0   -144031.46   -3239.7648 
  103300    488.54433   -146052.18            0   -144031.46   -2888.8933 
  103400    483.59324   -146031.68            0   -144031.44    -3128.438 
  103500     487.0465   -146045.98            0   -144031.46   -2896.6302 
  103600    484.47306   -146035.33            0   -144031.46   -3333.2137 
  103700    490.49266   -146060.24            0   -144031.47   -2816.3024 
  103800    486.31423   -146042.96            0   -144031.47   -3191.5834 
  103900    489.95325   -146058.03            0   -144031.49    -3134.159 
  104000    489.34231    -146055.5            0   -144031.49   -3047.3178 
  104100    489.53036   -146056.29            0   -144031.49   -3136.9498 
  104200    490.52118   -146060.38            0   -144031.49   -2901.0288 
  104300    488.70448   -146052.86            0   -144031.48   -3061.7375 
  104400     486.2773    -146042.8            0   -144031.47   -3107.7519 
  104500    487.06011   -146046.05            0   -144031.47   -2866.9146 
  104600    486.30062    -146042.9            0   -144031.46   -3066.3766 
  104700     484.9496    -146037.3            0   -144031.45   -2958.1179 
  104800    485.12798   -146038.05            0   -144031.46   -3093.8375 
  104900    488.09612   -146050.33            0   -144031.47   -2868.5525 
  105000    488.17297   -146050.65            0   -144031.47   -3033.7387 
  105100    485.52215   -146039.68            0   -144031.46   -3062.6577 
  105200     487.2479   -146046.81            0   -144031.46   -3006.7597 
  105300    487.79411   -146049.09            0   -144031.48   -3010.4133 
[...]
  975000    487.12663   -146040.69            0   -144025.84   -2850.8305 
  975100    488.99019    -146048.4            0   -144025.84   -2941.1849 
  975200    488.64849   -146046.98            0   -144025.83   -2858.8494 
  975300     485.5886   -146034.29            0    -144025.8   -2805.0946 
  975400    486.51233   -146038.13            0   -144025.82   -2881.8757 
  975500    485.71753   -146034.85            0   -144025.83   -2943.4506 
  975600    492.06114    -146061.1            0   -144025.84   -2685.7779 
  975700    486.56361   -146038.35            0   -144025.83   -2965.1582 
  975800    488.47347   -146046.25            0   -144025.83   -2910.8831 
  975900    488.75526   -146047.43            0   -144025.84   -3038.0298 
  976000    492.71441   -146063.82            0   -144025.85   -2805.4196 
  976100    487.17841    -146040.9            0   -144025.84   -3114.9902 
  976200    487.65461   -146042.86            0   -144025.83    -2828.185 
  976300    490.16561   -146053.25            0   -144025.83   -2811.2589 
  976400     487.1849   -146040.93            0   -144025.84   -3044.7742 
  976500    490.84688   -146056.08            0   -144025.84   -2905.0693 
  976600    485.24433   -146032.88            0   -144025.82   -2959.0994 
  976700    488.15853   -146044.95            0   -144025.83   -2773.1991 
  976800    488.69082   -146047.15            0   -144025.83     -2887.28 
  976900     485.8539    -146035.4            0   -144025.82   -2999.6276 
  977000    489.84812   -146051.96            0   -144025.86   -2932.4227 
  977100    490.40455   -146054.25            0   -144025.84    -2929.835 
  977200    488.90665   -146048.04            0   -144025.83   -2840.8362 
  977300    488.51977   -146046.44            0   -144025.83   -2966.8816 
  977400    488.33269   -146045.67            0   -144025.83   -2976.4259 
  977500    492.76853   -146064.04            0   -144025.85   -2704.8891 
  977600    487.12597   -146040.68            0   -144025.84   -3000.5097 
  977700    488.84519    -146047.8            0   -144025.84   -2835.7554 
  977800    491.13387   -146057.27            0   -144025.85   -2875.8996 
  977900    489.21811   -146049.34            0   -144025.84   -3085.7933 
  978000    491.40229   -146058.38            0   -144025.85   -2973.7486 
  978100    490.55108   -146054.87            0   -144025.85   -2967.5194 
  978200    488.35108   -146045.75            0   -144025.84    -3020.307 
  978300    489.31271   -146049.75            0   -144025.85   -3101.6183 
  978400    487.89473   -146043.85            0   -144025.82   -2796.5002 
  978500    488.37764   -146045.87            0   -144025.85   -3018.3892 
  978600    489.94601   -146052.35            0   -144025.83   -2825.4375 
  978700    488.59877   -146046.79            0   -144025.85   -3156.8517 
  978800     487.0694   -146040.44            0   -144025.82   -2829.6776 
  978900    487.77538   -146043.37            0   -144025.83   -2886.0889 
  979000    487.16175   -146040.83            0   -144025.83   -3088.1105 
  979100    487.27976   -146041.31            0   -144025.82   -2980.9276 
  979200    490.09214   -146052.95            0   -144025.84   -2896.4368 
  979300    487.73261   -146043.19            0   -144025.83   -2970.7381 
  979400    489.82682   -146051.86            0   -144025.84   -2994.1391 
  979500    490.12153   -146053.08            0   -144025.85   -3017.3909 
  979600    487.68823   -146043.02            0   -144025.84   -3275.8784 
  979700    490.56579   -146054.91            0   -144025.83   -2837.7873 
  979800    488.91177   -146048.07            0   -144025.83   -2981.3003 
  979900    487.51224   -146042.29            0   -144025.84   -3133.2207 
  980000    487.21025   -146041.02            0   -144025.82   -2967.5883 
  980100    489.05767   -146048.67            0   -144025.83   -2967.0691 
  980200    490.33338   -146053.96            0   -144025.84   -2948.9517 
  980300     486.4598   -146037.92            0   -144025.83   -2993.9473 
  980400    489.14311   -146049.03            0   -144025.84   -3026.0131 
  980500    490.09579   -146052.97            0   -144025.84   -2953.4669 
  980600    488.35938   -146045.79            0   -144025.84   -3079.5348 
  980700    488.14406   -146044.89            0   -144025.84   -2917.6878 
  980800    489.60463   -146050.94            0   -144025.84   -3035.4351 
  980900    488.11313   -146044.76            0   -144025.82   -2934.6838 
  981000    485.42956   -146033.65            0   -144025.81   -3063.4445 
  981100    488.02813   -146044.41            0   -144025.83    -2856.202 
  981200    487.42117   -146041.89            0   -144025.82    -2946.397 
  981300    487.96207   -146044.14            0   -144025.83   -3102.7331 
  981400    490.33515   -146053.97            0   -144025.84    -2931.424 
  981500     486.6873   -146038.87            0   -144025.83   -3099.6811 
  981600    488.76946   -146047.48            0   -144025.84    -3040.962 
  981700    491.37746   -146058.28            0   -144025.85   -2945.4401 
  981800    488.40792      -146046            0   -144025.85   -3238.6985 
  981900    490.62689   -146055.17            0   -144025.84   -2829.8203 
  982000    487.52745   -146042.34            0   -144025.84   -2996.7741 
  982100    491.65364   -146059.42            0   -144025.85   -3012.0434 
  982200    485.50311   -146033.97            0   -144025.83   -3338.7257 
  982300    490.99138   -146056.67            0   -144025.84   -2783.6618 
  982400    485.93274   -146035.74            0   -144025.83   -3067.7646 
  982500    487.61613    -146042.7            0   -144025.82   -2853.4759 
  982600    485.62172   -146034.46            0   -144025.84   -3195.0092 
  982700    488.62936   -146046.91            0   -144025.84   -3099.5403 
  982800    490.66967   -146055.37            0   -144025.86   -2897.4868 
  982900    489.01629   -146048.52            0   -144025.85   -2974.3503 
  983000     489.5136   -146050.57            0   -144025.85   -3111.7519 
  983100    490.76231   -146055.74            0   -144025.85   -2795.6165 
  983200    485.77666   -146035.09            0   -144025.83   -3033.9361 
  983300    487.35842   -146041.64            0   -144025.83   -2777.3009 
  983400     486.2922   -146037.24            0   -144025.84   -3161.8479 
  983500    491.97023   -146060.73            0   -144025.84   -2888.3879 
  983600    486.68731   -146038.86            0   -144025.83   -2979.9409 
  983700    489.23362   -146049.41            0   -144025.84   -3007.2517 
  983800    489.54049   -146050.68            0   -144025.84   -2953.8719 
  983900    487.44779   -146042.01            0   -144025.84   -3223.6003 
  984000    490.35552   -146054.05            0   -144025.85   -2871.5926 
  984100    487.27801   -146041.31            0   -144025.83   -3083.9809 
  984200    486.06205   -146036.25            0   -144025.81   -2827.5298 
  984300    484.21644   -146028.63            0   -144025.82   -3046.6773 
  984400    487.85162   -146043.69            0   -144025.84   -2911.1223 
  984500    488.01069   -146044.34            0   -144025.84   -2849.1035 
  984600    490.36059   -146054.08            0   -144025.85   -2919.9239 
  984700    488.45152   -146046.17            0   -144025.84   -2910.4686 
  984800    487.08727   -146040.52            0   -144025.83   -3069.3309 
  984900    487.80477   -146043.49            0   -144025.83   -2937.6006 
  985000    488.36468   -146045.81            0   -144025.84   -2883.2799 
  985100    490.21568   -146053.48            0   -144025.85   -3065.9188 
  985200    488.62444   -146046.89            0   -144025.84    -2990.426 
  985300    490.19353   -146053.39            0   -144025.85   -2967.5327 
  985400    487.70112   -146043.07            0   -144025.84   -2934.9548 
  985500    489.06594   -146048.72            0   -144025.85   -2917.9712 
  985600    486.21867   -146036.92            0   -144025.82   -2992.6542 
  985700    489.09367   -146048.84            0   -144025.85   -2889.7678 
  985800    484.86986   -146031.35            0   -144025.83   -3028.0961 
  985900    489.72325   -146051.44            0   -144025.85    -2849.044 
  986000      489.719   -146051.43            0   -144025.85   -3018.5404 
  986100    489.22388   -146049.37            0   -144025.85   -3067.0163 
  986200    489.46464   -146050.38            0   -144025.86   -3009.9122 
  986300    489.18395    -146049.2            0   -144025.84   -2974.4215 
  986400    487.64111   -146042.81            0   -144025.83   -2938.2137 
  986500    484.80367   -146031.06            0   -144025.82     -3061.11 
  986600    491.34887   -146058.16            0   -144025.85   -2835.6561 
  986700    486.01845   -146036.08            0   -144025.82   -2982.0535 
  986800    487.16367   -146040.85            0   -144025.84   -2921.4663 
  986900     490.0722   -146052.89            0   -144025.85   -3012.4631 
  987000    487.58025   -146042.57            0   -144025.84   -2916.7688 
  987100    486.97953   -146040.07            0   -144025.83   -2986.7839 
  987200    488.49988   -146046.36            0   -144025.83   -2880.2235 
  987300    488.87739   -146047.94            0   -144025.85   -2981.3759 
  987400    489.37509      -146050            0   -144025.85   -3093.3073 
  987500    490.17257   -146053.29            0   -144025.84   -2913.1417 
  987600    485.46809   -146033.81            0   -144025.82   -3036.5131 
  987700    487.32242    -146041.5            0   -144025.84    -2914.617 
  987800    488.24342   -146045.31            0   -144025.84   -2948.4833 
  987900    490.37525   -146054.13            0   -144025.84   -2874.1657 
  988000    486.28531   -146037.21            0   -144025.84    -3077.098 
  988100    489.31761   -146049.76            0   -144025.85   -2936.5865 
  988200     488.5215   -146046.46            0   -144025.84   -3026.8992 
  988300     487.1479   -146040.77            0   -144025.84   -3069.9583 
  988400    488.35304   -146045.77            0   -144025.84   -3101.0776 
  988500    489.66044   -146051.18            0   -144025.84   -3036.2953 
  988600    487.03119   -146040.29            0   -144025.84   -3046.3402 
  988700    486.38857   -146037.63            0   -144025.84   -2944.3921 
  988800    488.69899    -146047.2            0   -144025.84   -3021.4806 
  988900    489.67317   -146051.23            0   -144025.84   -2987.2468 
  989000      489.557   -146050.75            0   -144025.85   -3085.6982 
  989100    486.50888   -146038.11            0   -144025.82   -2932.8471 
  989200    487.56033   -146042.48            0   -144025.83   -2986.9872 
  989300    489.00387   -146048.45            0   -144025.84   -2907.8561 
  989400    487.36335   -146041.67            0   -144025.84   -3098.6248 
  989500      490.769   -146055.76            0   -144025.85   -2893.6406 
  989600    485.98367   -146035.95            0   -144025.83   -3002.6449 
  989700    487.16258   -146040.82            0   -144025.82   -2942.1282 
  989800    486.73191   -146039.05            0   -144025.83   -3053.6057 
  989900    486.20244   -146036.86            0   -144025.83   -2944.5561 
  990000    486.27867   -146037.16            0   -144025.82   -2972.3053 
  990100    489.78022   -146051.67            0   -144025.84   -2925.9054 
  990200    489.46548   -146050.38            0   -144025.86   -3167.7877 
  990300    490.71173   -146055.53            0   -144025.85   -2904.3552 
  990400    487.65707   -146042.89            0   -144025.84   -3129.0885 
  990500     489.8308   -146051.88            0   -144025.85   -2693.3713 
  990600    483.69706   -146026.48            0   -144025.82   -3265.0563 
  990700    487.44975   -146042.02            0   -144025.84   -3006.2628 
  990800    487.07853   -146040.47            0   -144025.82   -2863.5988 
  990900    488.41652   -146046.02            0   -144025.84   -3059.8562 
  991000    489.11643   -146048.92            0   -144025.84   -3047.4005 
  991100    487.83099   -146043.61            0   -144025.84   -3183.3904 
  991200    489.34184   -146049.85            0   -144025.84   -2900.9216 
  991300    489.34933    -146049.9            0   -144025.85   -3008.0857 
  991400    487.31284   -146041.45            0   -144025.83   -3024.3454 
  991500    486.29289   -146037.23            0   -144025.83   -3016.5939 
  991600    488.87612   -146047.93            0   -144025.84   -3031.6252 
  991700    485.31272   -146033.17            0   -144025.83   -3011.2471 
  991800    486.67633   -146038.81            0   -144025.82   -3031.5412 
  991900    488.25552   -146045.36            0   -144025.84   -3059.8255 
  992000    490.89115   -146056.28            0   -144025.85   -2985.5548 
  992100    486.19108   -146036.82            0   -144025.84   -3200.7466 
  992200    490.66333   -146055.33            0   -144025.85   -2940.5617 
  992300     489.1991   -146049.26            0   -144025.84    -2939.391 
  992400    485.94404    -146035.8            0   -144025.84   -3105.0883 
  992500    487.71324   -146043.12            0   -144025.84   -2981.8329 
  992600    488.88889   -146047.99            0   -144025.85   -2972.0889 
  992700    489.02725   -146048.56            0   -144025.85   -3136.2067 
  992800    490.16856   -146053.29            0   -144025.85   -3110.3656 
  992900    489.01412   -146048.51            0   -144025.85   -3007.6995 
  993000    490.10426   -146053.02            0   -144025.86   -3106.9993 
  993100    487.56077   -146042.48            0   -144025.83   -2916.9237 
  993200    486.82492   -146039.44            0   -144025.84   -2832.3803 
  993300    489.42324   -146050.19            0   -144025.84   -2958.6815 
  993400    489.89213   -146052.14            0   -144025.85   -2896.7374 
  993500     488.0972   -146044.71            0   -144025.84   -2984.3694 
  993600    488.72696   -146047.33            0   -144025.86   -3038.8887 
  993700    488.90744   -146048.07            0   -144025.85   -2905.3737 
  993800    488.13306   -146044.86            0   -144025.85   -2943.5352 
  993900    491.10113   -146057.15            0   -144025.86   -3085.3947 
  994000    491.47148   -146058.69            0   -144025.86   -2950.4132 
  994100    486.72677   -146039.04            0   -144025.84    -2972.646 
  994200    487.81698   -146043.55            0   -144025.85   -2945.3431 
  994300    486.83547   -146039.47            0   -144025.83   -2942.4274 
  994400     489.3779   -146050.01            0   -144025.84    -2866.907 
  994500    484.86329   -146031.32            0   -144025.83   -3138.5012 
  994600    490.62325   -146055.16            0   -144025.85   -2900.5174 
  994700    488.72395   -146047.31            0   -144025.85   -2994.6978 
  994800     488.0642   -146044.57            0   -144025.84   -2967.7691 
  994900    489.29807   -146049.68            0   -144025.85   -2966.9217 
  995000    490.58953   -146055.03            0   -144025.86    -2956.402 
  995100    487.90211   -146043.91            0   -144025.85   -3085.1955 
  995200    490.10949   -146053.04            0   -144025.85   -2857.7692 
  995300    488.54832   -146046.58            0   -144025.85   -2950.9437 
  995400       485.01   -146031.93            0   -144025.83   -2997.3054 
  995500     490.6316   -146055.19            0   -144025.84    -2769.055 
  995600    487.17363   -146040.89            0   -144025.84   -3091.3869 
  995700    488.68027   -146047.12            0   -144025.85   -2947.9181 
  995800    489.02975   -146048.57            0   -144025.85    -2982.018 
  995900    488.35485   -146045.77            0   -144025.84    -3123.061 
  996000    488.88315   -146047.96            0   -144025.84   -3039.8797 
  996100    486.30793    -146037.3            0   -144025.84   -2964.2854 
  996200    489.58893   -146050.88            0   -144025.84   -3034.5642 
  996300    489.24849   -146049.47            0   -144025.84   -3125.1761 
  996400    486.49295   -146038.05            0   -144025.82   -2989.2001 
  996500     488.8496   -146047.82            0   -144025.85   -3057.2155 
  996600    488.72424    -146047.3            0   -144025.84   -3074.2115 
  996700    484.97602   -146031.78            0   -144025.83   -3170.2847 
  996800    489.30966   -146049.72            0   -144025.84   -2931.8156 
  996900    488.32624   -146045.66            0   -144025.85   -3017.8047 
  997000     489.1535   -146049.08            0   -144025.85   -2883.9563 
  997100    485.93898   -146035.77            0   -144025.83   -3071.7925 
  997200    488.71724   -146047.28            0   -144025.85   -3000.4174 
  997300     488.4366   -146046.11            0   -144025.84   -2996.2108 
  997400    487.35878   -146041.65            0   -144025.84   -2983.4331 
  997500    486.09762   -146036.43            0   -144025.84   -3153.1584 
  997600     492.3482    -146062.3            0   -144025.85   -2957.9321 
  997700    490.27662   -146053.74            0   -144025.86   -3098.6045 
  997800    487.73773   -146043.22            0   -144025.84   -3017.2588 
  997900    489.10195   -146048.87            0   -144025.85   -2983.2516 
  998000    487.10841   -146040.61            0   -144025.84   -3136.9493 
  998100    489.84767   -146051.95            0   -144025.84   -2825.2519 
  998200    485.51568   -146034.02            0   -144025.83   -3058.7788 
  998300    490.84049   -146056.07            0   -144025.86   -2973.5912 
  998400    487.34903   -146041.61            0   -144025.84   -3035.9657 
  998500    483.80101   -146026.91            0   -144025.81   -3003.9884 
  998600    488.17187   -146045.01            0   -144025.83   -2901.7944 
  998700    487.67057   -146042.93            0   -144025.83   -3015.4947 
  998800    487.07291   -146040.46            0   -144025.83   -3052.1046 
  998900    487.69935   -146043.05            0   -144025.83   -2944.5451 
  999000    487.47262   -146042.11            0   -144025.83   -3010.7669 
  999100    489.73844    -146051.5            0   -144025.85   -2957.5562 
  999200    487.20117   -146040.99            0   -144025.83   -3162.3948 
  999300    489.21998   -146049.36            0   -144025.85   -2901.1157 
  999400    490.42935   -146054.36            0   -144025.85   -3137.8931 
  999500    487.15842   -146040.82            0   -144025.84   -3225.1903 
  999600    493.79886   -146068.31            0   -144025.86   -2919.5221 
  999700    486.48264   -146038.02            0   -144025.83   -3217.5063 
  999800    489.13229   -146048.99            0   -144025.84   -3019.4101 
  999900    486.32864   -146037.37            0   -144025.82   -2996.8255 
 1000000    486.65111    -146038.7            0   -144025.82   -2943.8275 
Loop time of 2070.38 on 1 procs for 1000000 steps with 32000 atoms

Performance: 41.731 ns/day, 0.575 hours/ns, 483.002 timesteps/s
84.8% CPU use with 1 MPI tasks x no OpenMP threads

MPI task timing breakdown:
Section |  min time  |  avg time  |  max time  |%varavg| %total
---------------------------------------------------------------
Pair    | 1352       | 1352       | 1352       |   0.0 | 65.30
Neigh   | 2.6587     | 2.6587     | 2.6587     |   0.0 |  0.13
Comm    | 188.44     | 188.44     | 188.44     |   0.0 |  9.10
Output  | 1.8311     | 1.8311     | 1.8311     |   0.0 |  0.09
Modify  | 357.21     | 357.21     | 357.21     |   0.0 | 17.25
Other   |            | 168.2      |            |       |  8.12

Nlocal:    32000 ave 32000 max 32000 min
Histogram: 1 0 0 0 0 0 0 0 0 0
Nghost:    20727 ave 20727 max 20727 min
Histogram: 1 0 0 0 0 0 0 0 0 0
Neighs:    0 ave 0 max 0 min
Histogram: 1 0 0 0 0 0 0 0 0 0

Total # of neighbors = 0
Ave neighs/atom = 0
Neighbor list builds = 31304
Dangerous builds = 0

Please see the log.cite file for references relevant to this simulation

Total wall time: 0:34:31
