LAMMPS (10 Mar 2016)
KOKKOS mode is enabled (../kokkos.cpp:36)
  using 1 GPU(s)
  using 0 OpenMP thread(s) per MPI task
package kokkos
# bulk Si via Tersoff

include pak.kokkos
package kokkos neigh half/thread
newton on

units		metal
atom_style	atomic

lattice		diamond 5.431
Lattice spacing in x,y,z = 5.431 5.431 5.431
region		box block 0 20 0 20 0 10
create_box	1 box
Created orthogonal box = (0 0 0) to (108.62 108.62 54.31)
  1 by 1 by 1 MPI processor grid
create_atoms	1 box
Created 32000 atoms

pair_style	tersoff
pair_coeff	* * Si.tersoff Si
mass            1 28.06

velocity	all create 1000.0 376847 loop geom

neighbor	1.0 bin
neigh_modify    delay 5 every 1

fix		1 all nve

timestep	0.001

thermo          100
run		1000000
Neighbor list info ...
  1 neighbor list requests
  update every 1 steps, delay 5 steps, check yes
  max neighbors/atom: 2000, page size: 100000
  master list distance cutoff = 4.2
  ghost atom cutoff = 4.2
  binsize = 2.1 -> bins = 52 52 26
Memory usage per processor = 6.67195 Mbytes
Step Temp E_pair E_mol TotEng Press 
       0         1000   -148173.19            0   -144036.99    7019.4434 
     100    430.57813   -145815.61            0   -144034.65   -14550.734 
     200      543.501   -146282.54            0   -144034.51   -2111.5779 
     300    494.98013   -146081.58            0   -144034.24   -3957.8059 
     400    497.19992    -146090.7            0   -144034.18   -3083.4992 
     500    477.91609   -146010.87            0   -144034.11   -3175.9467 
     600    468.79521   -145973.16            0   -144034.13   -4943.1478 
     700     497.7616   -146093.01            0   -144034.17   -2378.2847 
     800    489.26324   -146057.87            0   -144034.18   -3813.5563 
     900     489.0544      -146057            0   -144034.17   -3244.6261 
    1000    483.16088   -146032.63            0   -144034.18   -3974.0969 
    1100    489.06704   -146057.05            0   -144034.17   -3233.5411 
    1200    487.15391   -146049.15            0   -144034.18   -3356.6846 
    1300    490.20995   -146061.79            0   -144034.19   -3634.0824 
    1400    487.19702   -146049.33            0   -144034.19   -3698.2674 
    1500    489.97716   -146060.84            0    -144034.2   -3455.2507 
    1600    488.02115   -146052.73            0   -144034.18   -3335.4511 
    1700    487.05984   -146048.76            0   -144034.19   -3553.2842 
    1800     487.8753   -146052.12            0   -144034.17   -3299.2701 
    1900    486.02989   -146044.48            0   -144034.17   -3403.0451 
    2000    486.69891   -146047.27            0   -144034.18   -3536.2282 
    2100    489.35661   -146058.24            0   -144034.17   -3076.6528 
    2200    484.30585   -146037.36            0   -144034.17   -3570.2059 
    2300    488.85586   -146056.17            0   -144034.17   -3073.9885 
    2400    485.30488   -146041.49            0   -144034.18    -3469.274 
    2500    488.50345   -146054.73            0   -144034.18   -3276.2312 
    2600    490.19687   -146061.74            0   -144034.19   -3113.2766 
    2700    482.64121   -146030.47            0   -144034.17   -3611.4725 
    2800    488.75341   -146055.76            0   -144034.18   -3134.0511 
    2900    485.96652   -146044.23            0   -144034.17   -3394.2211 
    3000    491.12228   -146065.58            0    -144034.2   -3580.3742 
    3100      489.521   -146058.95            0    -144034.2   -3301.5774 
    3200    486.52458   -146046.55            0   -144034.18   -3325.7713 
    3300    489.35117   -146058.24            0   -144034.18     -3262.69 
    3400     484.8997   -146039.82            0   -144034.18   -3540.9199 
    3500    489.71397   -146059.73            0   -144034.18   -3031.2783 
    3600    486.88893   -146048.05            0   -144034.19   -3426.0542 
    3700    488.07523   -146052.96            0   -144034.18   -3390.3751 
    3800    487.99919   -146052.64            0   -144034.18   -2971.6364 
    3900    486.35355   -146045.85            0   -144034.19   -3507.4556 
    4000    488.37508    -146054.2            0   -144034.19   -3150.1738 
    4100    488.24239   -146053.66            0    -144034.2   -3308.8332 
    4200    484.67054   -146038.88            0   -144034.19   -3537.8365 
    4300    490.03505   -146061.07            0   -144034.19     -3135.36 
    4400    488.25618   -146053.73            0   -144034.21   -3330.6231 
    4500    489.47029   -146058.73            0   -144034.19   -3088.5714 
    4600    483.11074   -146032.41            0   -144034.17    -3372.441 
    4700    488.77001   -146055.83            0   -144034.18    -3026.754 
    4800    484.95981   -146040.07            0   -144034.18   -3411.9674 
    4900    487.69538   -146051.39            0   -144034.19   -3179.2871 
    5000    490.57752   -146063.32            0   -144034.19   -3042.5304 
    5100    483.22748   -146032.89            0   -144034.16   -3373.9068 
    5200    492.64592   -146071.89            0   -144034.21   -2868.1228 
    5300    483.70652    -146034.9            0   -144034.19   -3656.5088 
    5400    489.80849   -146060.14            0   -144034.19    -3031.446 
    5500    486.22986   -146045.33            0   -144034.19   -3274.8061 
    5600    486.02299   -146044.47            0   -144034.19    -3302.555 
    5700    488.83105   -146056.09            0   -144034.19    -3182.295 
    5800    488.92027   -146056.48            0   -144034.21   -3333.3503 
    5900      491.136   -146065.65            0   -144034.21   -3318.7202 
    6000     490.9343   -146064.81            0   -144034.21   -3195.8688 
    6100    485.84753   -146043.75            0   -144034.19   -3308.7869 
    6200    486.31632   -146045.69            0   -144034.19   -3207.0111 
    6300     485.5224    -146042.4            0   -144034.18   -2965.3179 
    6400    485.61503   -146042.78            0   -144034.18   -3128.9409 
    6500    486.57999   -146046.78            0   -144034.19    -3028.187 
    6600    488.37754   -146054.24            0   -144034.21     -3215.61 
    6700    485.17797   -146040.98            0   -144034.19    -3273.513 
    6800    489.32171   -146058.12            0   -144034.19   -2956.2708 
    6900    486.35606   -146045.85            0   -144034.19   -3099.7305 
    7000    487.30874    -146049.8            0   -144034.19   -3019.8581 
    7100    488.64805   -146055.35            0    -144034.2    -3061.582 
    7200    485.88042   -146043.87            0   -144034.18   -2954.7495 
    7300    484.56374   -146038.45            0    -144034.2   -3283.0582 
    7400    490.43045   -146062.73            0   -144034.22   -3199.4423 
    7500    486.48561    -146046.4            0    -144034.2   -3217.1237 
    7600    487.01418   -146048.57            0   -144034.18   -3036.6909 
    7700    486.33852   -146045.77            0   -144034.18   -3042.9607 
    7800    484.91637   -146039.89            0   -144034.18   -3085.2022 
    7900    486.69383   -146047.26            0    -144034.2   -3181.0192 
    8000    489.50687    -146058.9            0   -144034.21   -3074.2924 
    8100      488.291   -146053.86            0   -144034.19   -2920.8223 
    8200    485.39405   -146041.88            0   -144034.19   -3273.0644 
    8300    487.37101   -146050.05            0   -144034.19   -3003.2537 
    8400    487.04708   -146048.72            0    -144034.2   -2874.0529 
    8500    488.67109   -146055.44            0    -144034.2    -2982.595 
    8600    486.28057   -146045.54            0   -144034.19   -3045.8779 
    8700     483.3399   -146033.37            0   -144034.18   -3258.3202 
    8800    488.75548   -146055.79            0    -144034.2   -2877.1872 
    8900    486.90245   -146048.13            0   -144034.21   -3327.4991 
    9000    491.54856   -146067.35            0   -144034.21   -2936.0081 
    9100    487.11725   -146049.03            0   -144034.22   -3275.0965 
    9200    490.89472   -146064.65            0   -144034.22   -2941.4247 
    9300    484.85959   -146039.68            0    -144034.2   -3171.0495 
    9400    489.22804   -146057.75            0   -144034.21   -3114.5903 
    9500    489.63531   -146059.44            0   -144034.21   -2926.0075 
    9600    485.19228   -146041.05            0    -144034.2    -3198.399 
    9700    488.51001   -146054.77            0    -144034.2   -2932.6541 
    9800    489.91484   -146060.61            0   -144034.22   -3049.5271 
    9900    487.84963   -146052.04            0    -144034.2   -3064.6295 
   10000    483.91581   -146035.76            0   -144034.19   -3082.7457 
   10100    487.38334   -146050.11            0    -144034.2   -2964.1129 
   10200    485.99341   -146044.35            0   -144034.18   -3112.5081 
   10300    485.61638   -146042.79            0   -144034.18   -2988.4849 
   10400    486.73754   -146047.43            0   -144034.19   -2955.7669 
   10500    485.49191   -146042.29            0    -144034.2   -3067.0202 
   10600    489.94313   -146060.71            0   -144034.21   -2904.1879 
   10700    487.08091   -146048.87            0   -144034.21   -3054.6385 
   10800    486.28954   -146045.58            0   -144034.19    -3091.379 
   10900    487.93827   -146052.41            0    -144034.2   -3131.2646 
   11000     487.1524   -146049.15            0    -144034.2   -3095.2481 
   11100    488.31239   -146053.96            0    -144034.2   -3002.3559 
   11200    487.17775   -146049.26            0    -144034.2   -3113.3374 
   11300    488.17592    -146053.4            0   -144034.21   -3033.8264 
   11400    487.08552   -146048.88            0    -144034.2    -3049.812 
   11500    488.19742   -146053.49            0   -144034.21   -3002.4677 
   11600    486.27417   -146045.52            0    -144034.2   -3216.8048 
   11700     482.5141   -146029.94            0   -144034.17   -3128.4133 
   11800    487.71621   -146051.47            0   -144034.18   -2895.4413 
   11900    484.45589   -146037.98            0   -144034.17   -3116.3999 
   12000    487.99945   -146052.66            0    -144034.2   -3169.8005 
   12100    487.90066   -146052.24            0   -144034.19   -2986.6193 
   12200    488.10113   -146053.09            0   -144034.21   -3237.1447 
   12300    483.85206   -146035.49            0   -144034.18   -3243.1599 
   12400    486.64332   -146047.04            0   -144034.19   -2995.7102 
   12500    484.39738   -146037.74            0   -144034.18    -3112.054 
   12600    488.50181   -146054.75            0   -144034.22   -3186.3538 
   12700    489.24415   -146057.81            0    -144034.2   -3034.1622 
   12800    491.02811   -146065.21            0   -144034.22   -3028.0351 
   12900    486.10216   -146044.82            0   -144034.21   -3101.6425 
   13000    485.48571   -146042.25            0   -144034.19   -3102.6554 
   13100    485.26285   -146041.32            0   -144034.18   -2853.9434 
   13200    486.06763   -146044.66            0   -144034.19   -2988.8209 
   13300    486.39316   -146046.02            0    -144034.2   -3086.6575 
   13400    487.22323   -146049.45            0    -144034.2   -3074.3186 
   13500    489.59001   -146059.25            0   -144034.21   -2956.4022 
   13600    487.59893   -146051.02            0   -144034.22   -3259.2572 
   13700    490.18729   -146061.72            0   -144034.21   -2921.1432 
   13800    486.90077   -146048.13            0   -144034.21   -3147.9113 
   13900    487.34011   -146049.93            0    -144034.2   -3003.8689 
   14000    488.22818    -146053.6            0    -144034.2   -3041.7989 
   14100    487.87329   -146052.15            0   -144034.21   -3279.5434 
   14200    488.96564   -146056.66            0    -144034.2   -2974.7862 
   14300    489.14787   -146057.43            0   -144034.22    -3181.685 
   14400    486.25217   -146045.44            0    -144034.2   -3069.7365 
   14500    488.26359   -146053.78            0   -144034.22   -3146.9561 
   14600    487.54397   -146050.78            0    -144034.2   -3015.6774 
   14700    488.44969   -146054.54            0   -144034.21   -3116.8744 
   14800    486.79957    -146047.7            0    -144034.2   -3157.0778 
   14900    487.23083   -146049.48            0    -144034.2    -3129.397 
   15000    486.90567   -146048.14            0    -144034.2   -3129.7024 
   15100    487.87217   -146052.14            0   -144034.21   -3324.6688 
   15200    488.50423   -146054.75            0    -144034.2   -2942.5404 
   15300     488.5279   -146054.86            0   -144034.21   -3091.1934 
   15400    488.74582   -146055.76            0   -144034.21   -2997.0538 
   15500    486.61059   -146046.92            0   -144034.21   -3272.0553 
   15600    487.28924   -146049.73            0    -144034.2   -3128.4584 
   15700     487.4905   -146050.55            0    -144034.2   -3068.2176 
   15800    487.12566   -146049.04            0   -144034.19   -2887.6259 
   15900    485.74326   -146043.34            0   -144034.21   -3364.0988 
   16000    490.38483   -146062.54            0   -144034.21   -3000.1882 
   16100    487.31288   -146049.83            0   -144034.21    -3200.106 
   16200    487.04399    -146048.7            0   -144034.19   -3204.2237 
   16300    487.00187   -146048.53            0   -144034.19   -3044.1512 
   16400    486.20963   -146045.24            0   -144034.18    -3074.208 
   16500     485.4802   -146042.24            0   -144034.19   -3146.7137 
   16600    486.08597   -146044.75            0    -144034.2   -3205.7481 
   16700      485.412   -146041.95            0   -144034.19   -3104.2411 
   16800    491.19335   -146065.88            0   -144034.21    -2871.845 
   16900    486.09599   -146044.79            0    -144034.2   -3244.8136 
   17000    485.38683   -146041.84            0   -144034.19   -3042.3169 
   17100    487.05388   -146048.75            0    -144034.2   -3150.9054 
   17200    486.89653   -146048.08            0   -144034.18   -2921.1371 
   17300    488.14644   -146053.26            0   -144034.19   -3081.9568 
   17400     485.9496   -146044.19            0    -144034.2   -3250.4313 
   17500    489.80051   -146060.12            0   -144034.21   -3038.6852 
   17600     488.6922   -146055.54            0   -144034.21   -3249.5158 
   17700    487.54262   -146050.77            0    -144034.2   -3030.3777 
   17800    485.77839   -146043.46            0   -144034.19   -3065.4227 
   17900    487.92115   -146052.35            0   -144034.21   -3145.8214 
   18000    488.91737   -146056.46            0    -144034.2   -3038.8681 
   18100    484.81005   -146039.45            0   -144034.19   -2927.8675 
   18200    487.67324   -146051.32            0    -144034.2   -3128.7022 
   18300    487.61014   -146051.05            0    -144034.2   -3073.4518 
   18400    489.07968   -146057.14            0   -144034.21   -3153.2452 
   18500    486.86668   -146047.98            0    -144034.2   -3059.6303 
   18600    489.23438   -146057.78            0   -144034.21   -3038.8482 
   18700    484.92637   -146039.95            0    -144034.2    -3277.536 
   18800    488.39499    -146054.3            0    -144034.2   -3024.8869 
   18900    487.18303   -146049.29            0    -144034.2   -3076.7719 
   19000    489.54904   -146059.07            0    -144034.2   -2979.0039 
   19100    488.88698   -146056.34            0   -144034.21    -3116.424 
   19200    485.64973   -146042.95            0   -144034.21   -3080.0889 
   19300    486.12309    -146044.9            0    -144034.2   -3060.3407 
   19400    486.95337   -146048.34            0   -144034.21   -3244.9085 
   19500    488.68171    -146055.5            0   -144034.21   -2965.0286 
   19600    487.17058   -146049.24            0   -144034.21   -3222.1706 
   19700    490.91147   -146064.72            0   -144034.22   -2989.2178 
   19800    487.51443   -146050.68            0   -144034.22   -3095.9863 
   19900    488.84535   -146056.17            0   -144034.21   -3001.8695 
   20000    487.29181   -146049.75            0   -144034.21   -3140.8219 
   20100    488.93828   -146056.56            0   -144034.21    -3212.629 
   20200    487.99018   -146052.63            0   -144034.21   -2992.5876 
   20300    487.84181   -146052.02            0   -144034.21    -3194.281 
   20400    486.41736   -146046.11            0   -144034.19   -2994.8896 
   20500    485.27792    -146041.4            0   -144034.19    -3179.002 
   20600    488.17973   -146053.41            0    -144034.2   -3050.7706 
   20700    488.60924   -146055.19            0   -144034.21   -3107.1642 
   20800    485.68347   -146043.09            0   -144034.21   -3321.6891 
   20900    488.00824   -146052.69            0    -144034.2   -2980.1049 
   21000    486.14531      -146045            0   -144034.21   -3186.1523 
   21100    487.82384   -146051.94            0    -144034.2   -2941.1914 
   21200    487.51153   -146050.66            0   -144034.21   -2992.2035 
   21300    486.58409   -146046.81            0   -144034.21   -3063.5265 
   21400     483.8783   -146035.61            0   -144034.19   -3092.2772 
   21500    489.95181   -146060.76            0   -144034.22   -3016.9711 
   21600    486.03843   -146044.55            0    -144034.2   -3019.2383 
   21700    485.43525   -146042.06            0    -144034.2   -3305.1841 
   21800    491.97042   -146069.11            0   -144034.23   -3013.9354 
   21900    489.05802   -146057.06            0   -144034.22    -3169.475 
   22000    485.75005   -146043.35            0   -144034.19   -3151.8248 
   22100    485.42148   -146041.98            0   -144034.18   -3010.8544 
   22200    484.78801   -146039.37            0   -144034.19   -3158.1494 
   22300    489.34673   -146058.24            0   -144034.21    -2969.537 
   22400    485.27303   -146041.38            0    -144034.2   -3074.0134 
   22500    489.58158   -146059.22            0   -144034.22    -2983.195 
   22600    486.64103   -146047.04            0    -144034.2   -2992.2294 
   22700    485.59764   -146042.72            0    -144034.2   -3135.6928 
   22800    487.62851   -146051.13            0    -144034.2   -3039.8915 
   22900    486.54321   -146046.63            0    -144034.2   -3030.6046 
   23000     486.5824   -146046.79            0   -144034.19   -3080.5362 
   23100    486.34189   -146045.79            0   -144034.19   -3085.9923 
   23200    486.46702   -146046.33            0   -144034.21   -2987.9865 
   23300    487.23942   -146049.53            0   -144034.21   -2962.7112 
   23400    485.44913   -146042.12            0   -144034.21   -3201.0717 
   23500    487.84479   -146052.03            0   -144034.21   -2967.7396 
   23600    490.81562   -146064.33            0   -144034.22   -2975.4106 
   23700    487.13628   -146049.09            0    -144034.2   -3063.8693 
   23800    485.83307    -146043.7            0    -144034.2    -3163.794 
   23900    491.04822    -146065.3            0   -144034.23   -3041.4248 
   24000    488.41041   -146054.37            0   -144034.21    -3106.239 
   24100    486.22844   -146045.34            0    -144034.2   -3083.1578 
   24200    488.60585   -146055.19            0   -144034.22   -3127.7121 
   24300    487.08938    -146048.9            0   -144034.21   -3103.4052 
   24400    488.72453   -146055.67            0   -144034.21   -2995.0619 
   24500    486.57632   -146046.78            0    -144034.2   -3026.8692 
   24600    487.69132    -146051.4            0   -144034.22   -3369.2746 
   24700    485.39148   -146041.86            0   -144034.19   -3082.1153 
   24800    489.13312   -146057.35            0    -144034.2   -3118.9743 
   24900    488.73382   -146055.71            0   -144034.21   -3057.5494 
   25000    487.01255    -146048.6            0   -144034.22   -3206.5602 
   25100    484.32769   -146037.46            0   -144034.19   -2993.1709 
   25200    485.03537   -146040.38            0   -144034.18   -3098.6956 
   25300    487.21446   -146049.42            0    -144034.2   -3068.1569 
   25400    486.71533   -146047.35            0    -144034.2   -3155.9398 
   25500    489.41113   -146058.51            0   -144034.21   -3064.8732 
   25600    487.85309   -146052.07            0   -144034.22   -3035.6903 
   25700    486.78143   -146047.64            0   -144034.22   -3345.4008 
   25800    487.26621   -146049.62            0   -144034.19   -2860.4378 
   25900    487.59964   -146051.02            0   -144034.21   -3052.8736 
   26000    489.27241   -146057.94            0   -144034.21   -2924.6119 
   26100    486.08114   -146044.72            0   -144034.19   -3046.5605 
   26200    486.11975   -146044.88            0    -144034.2   -2946.3294 
   26300    485.19645   -146041.06            0   -144034.19   -3020.5201 
   26400    487.28487    -146049.7            0   -144034.19   -2841.6812 
   26500    484.46164   -146038.02            0   -144034.19   -3163.0393 
   26600    485.13633    -146040.8            0   -144034.19   -3003.2393 
   26700    487.23297   -146049.47            0   -144034.18   -2775.1853 
   26800      482.876   -146031.46            0   -144034.19    -3243.544 
   26900    487.60607   -146051.03            0    -144034.2   -2880.3054 
   27000    487.98582   -146052.61            0   -144034.21   -3019.2811 
   27100     489.1167    -146057.3            0   -144034.22   -3116.9543 
   27200    488.01594   -146052.74            0   -144034.21   -2936.7481 
   27300    486.83118   -146047.84            0   -144034.21   -3052.8537 
   27400    489.26555   -146057.92            0   -144034.22   -2959.7414 
   27500    484.38353   -146037.71            0    -144034.2   -3145.7421 
   27600    488.27867   -146053.82            0   -144034.21    -2834.173 
   27700     486.7518   -146047.52            0   -144034.22   -3033.7601 
   27800    485.59032   -146042.69            0   -144034.19   -3031.6749 
   27900    489.81208   -146060.17            0   -144034.21   -3066.2702 
   28000    486.18977   -146045.17            0   -144034.19   -2946.5599 
   28100    486.96052   -146048.36            0    -144034.2   -2880.5199 
   28200    485.26407   -146041.35            0    -144034.2   -3172.5078 
   28300    484.46238   -146038.01            0   -144034.18   -2886.3655 
   28400    486.50089   -146046.46            0    -144034.2   -2855.4616 
   28500    484.29624   -146037.34            0    -144034.2   -3257.9576 
   28600    485.24385   -146041.26            0    -144034.2   -3027.3182 
   28700    488.91695   -146056.47            0   -144034.21   -3041.6221 
   28800    488.20486   -146053.51            0    -144034.2   -2966.8954 
   28900    488.82645   -146056.11            0   -144034.23   -3169.0078 
   29000    486.60199   -146046.89            0   -144034.21   -3139.9278 
   29100    487.36291   -146050.03            0    -144034.2   -2803.8296 
   29200    486.24156    -146045.4            0   -144034.21   -3159.6173 
   29300     486.1612   -146045.06            0    -144034.2   -3013.1487 
   29400    486.65075   -146047.09            0   -144034.21   -3156.3447 
   29500    489.48132   -146058.81            0   -144034.22   -3009.5551 
   29600    490.70216   -146063.86            0   -144034.22   -3113.1944 
   29700    485.78201   -146043.49            0    -144034.2   -3103.7378 
   29800    486.57416   -146046.76            0   -144034.19   -3062.4478 
   29900     485.5343   -146042.45            0   -144034.19   -3111.5523 
   30000    484.74563    -146039.2            0    -144034.2    -3126.853 
   30100    488.43428   -146054.47            0   -144034.21   -3063.4055 
   30200    489.11733   -146057.29            0   -144034.21   -3051.8143 
   30300    483.59919   -146034.45            0   -144034.19   -3269.0209 
   30400    488.95559   -146056.62            0   -144034.21   -2898.4822 
   30500    484.42549   -146037.87            0   -144034.19   -3221.3782 
   30600     488.8292    -146056.1            0   -144034.21   -3047.2239 
   30700    490.45683   -146062.84            0   -144034.21   -3151.8317 
   30800    484.75658   -146039.24            0    -144034.2   -3297.9879 
   30900    487.12442   -146049.04            0    -144034.2   -2875.5606 
   31000    488.81657   -146056.05            0   -144034.21   -3057.2421 
   31100    487.76744   -146051.71            0   -144034.21   -3166.3802 
   31200    486.67262   -146047.18            0    -144034.2   -3194.1603 
   31300     488.2089   -146053.53            0    -144034.2   -2891.7067 
   31400    486.25126   -146045.42            0   -144034.19   -3029.1698 
   31500    486.16459   -146045.08            0   -144034.21   -3079.0087 
   31600    484.86031   -146039.67            0   -144034.19   -3005.3915 
   31700    487.69773   -146051.41            0    -144034.2   -2916.4493 
   31800    485.70051   -146043.15            0    -144034.2   -3028.0141 
   31900     487.7065   -146051.47            0   -144034.22   -3026.0013 
   32000    487.87549   -146052.16            0   -144034.22   -3004.8061 
   32100    488.96674   -146056.69            0   -144034.22   -3017.1018 
   32200    487.48149   -146050.52            0    -144034.2   -2984.7337 
   32300    489.56014   -146059.16            0   -144034.24   -3218.3469 
   32400    488.48711    -146054.7            0   -144034.22   -3025.0897 
   32500    486.00257    -146044.4            0    -144034.2   -2938.8348 
   32600    487.90944   -146052.31            0   -144034.22    -3145.696 
   32700    487.23135   -146049.49            0   -144034.21   -2886.2576 
   32800     485.5435    -146042.5            0    -144034.2   -3002.2418 
   32900    483.61211    -146034.5            0   -144034.19   -2991.9414 
   33000    486.82596    -146047.8            0    -144034.2   -2883.6589 
   33100    485.44569   -146042.12            0   -144034.22    -3142.045 
   33200    489.76337   -146059.97            0   -144034.22    -2776.492 
   33300    484.88369   -146039.78            0    -144034.2   -3214.7483 
   33400     489.7433   -146059.89            0   -144034.22   -2925.7724 
   33500    486.40191   -146046.07            0   -144034.22   -3245.9684 
   33600    486.94329    -146048.3            0   -144034.21   -3099.0987 
   33700    489.09017   -146057.18            0    -144034.2   -2800.7134 
   33800    485.91359   -146044.06            0   -144034.22   -3267.9663 
   33900    486.82568   -146047.81            0    -144034.2    -2797.427 
   34000    486.11312   -146044.85            0   -144034.19   -2921.5543 
   34100    487.01603    -146048.6            0   -144034.21   -2976.1431 
   34200    487.32072   -146049.86            0   -144034.21   -2994.9302 
   34300    484.78869   -146039.37            0   -144034.19    -2951.387 
   34400    488.07036   -146052.97            0   -144034.21   -2878.4468 
   34500    487.73898   -146051.59            0   -144034.21   -3087.5266 
   34600    485.69746   -146043.13            0    -144034.2   -2932.5674 
   34700    482.91526   -146031.62            0   -144034.19   -2955.7838 
   34800    485.42233   -146041.99            0   -144034.19   -2917.2014 
   34900     484.9068   -146039.85            0   -144034.18   -3007.8454 
   35000    487.55164   -146050.81            0   -144034.21   -2989.6684 
   35100    487.22782   -146049.48            0   -144034.21   -3037.5687 
   35200    487.64173   -146051.19            0   -144034.21   -2900.0776 
   35300    487.78436   -146051.79            0   -144034.22   -3023.7997 
   35400    485.24176   -146041.25            0    -144034.2   -3154.4338 
   35500    488.10724   -146053.11            0    -144034.2   -2957.1358 
   35600    484.74083   -146039.19            0    -144034.2   -3199.9345 
   35700    488.00556    -146052.7            0   -144034.22   -3013.3435 
   35800    488.91748   -146056.47            0   -144034.21   -2937.5959 
   35900     489.3721   -146058.36            0   -144034.23   -2960.7471 
   36000    487.37095   -146050.08            0   -144034.22   -3057.2206 
   36100    489.21157   -146057.69            0   -144034.21   -2919.0637 
   36200    486.14778   -146045.01            0   -144034.21   -2961.9861 
   36300    485.30355   -146041.52            0   -144034.21   -3028.4509 
   36400    487.38362   -146050.13            0   -144034.21   -3180.8387 
   36500    489.68473   -146059.66            0   -144034.23   -3024.9186 
   36600    486.92597   -146048.23            0   -144034.21   -2988.4279 
   36700    487.38053   -146050.12            0   -144034.22   -3054.4782 
   36800    487.66204   -146051.29            0   -144034.22   -3065.9648 
   36900     487.6161   -146051.08            0   -144034.21   -2872.4917 
   37000    487.04615   -146048.73            0   -144034.21   -3054.0575 
   37100    487.16689   -146049.23            0   -144034.21   -2989.6939 
   37200    490.64961   -146063.65            0   -144034.23   -3006.2821 
   37300    486.82056    -146047.8            0   -144034.22   -3057.4784 
   37400    485.63317   -146042.88            0   -144034.21   -3028.9946 
   37500    486.18048   -146045.15            0   -144034.21   -2975.3873 
   37600    487.15791   -146049.19            0   -144034.21   -2863.0577 
   37700    487.80799   -146051.89            0   -144034.22   -2985.6833 
   37800     487.2104   -146049.42            0   -144034.22   -2995.1662 
   37900    487.86098    -146052.1            0   -144034.21   -3008.8029 
   38000    488.82607    -146056.1            0   -144034.22   -2817.5209 
   38100    485.93483   -146044.13            0   -144034.21   -3069.3208 
   38200    491.20905   -146065.97            0   -144034.24   -2880.9065 
   38300    487.91907   -146052.36            0   -144034.24   -3162.5094 
   38400    491.30535   -146066.38            0   -144034.25    -3074.176 
   38500    490.95036    -146064.9            0   -144034.24   -3003.1069 
   38600    488.99732   -146056.82            0   -144034.23   -3133.9673 
   38700    488.60474   -146055.19            0   -144034.22   -2954.5291 
   38800    486.10208   -146044.82            0   -144034.21   -2993.5564 
   38900    487.54747   -146050.81            0   -144034.22   -3272.6083 
   39000    487.88286   -146052.18            0    -144034.2   -2828.7745 
   39100      485.799   -146043.57            0   -144034.21   -3208.2505 
   39200    487.21351   -146049.42            0   -144034.21    -2908.014 
   39300    486.14921      -146045            0   -144034.19   -2923.2476 
   39400    485.46091   -146042.16            0    -144034.2   -3128.1618 
   39500    485.23022   -146041.21            0    -144034.2   -2890.3477 
   39600    487.79954   -146051.85            0   -144034.22   -3040.3242 
   39700    488.92715   -146056.51            0   -144034.21   -2842.4526 
   39800    485.78731   -146043.52            0   -144034.21   -3099.6219 
   39900    490.64465   -146063.62            0   -144034.22   -2863.4119 
   40000    487.26349   -146049.63            0   -144034.21   -3110.8802 
   40100    486.48608    -146046.4            0    -144034.2   -2864.9286 
   40200     488.1993    -146053.5            0   -144034.21   -2861.0417 
   40300    487.04887   -146048.75            0   -144034.22   -3110.5521 
   40400     486.7516   -146047.51            0   -144034.21   -2964.9984 
   40500    487.56875   -146050.88            0    -144034.2   -2995.6212 
   40600    487.25361   -146049.57            0    -144034.2   -2917.9709 
   40700    486.33668   -146045.78            0    -144034.2   -2917.6915 
   40800    484.01167   -146036.16            0   -144034.19   -2994.3186 
   40900    486.42038   -146046.13            0    -144034.2   -2834.8111 
   41000     486.2307   -146045.33            0   -144034.18   -2864.5664 
   41100    487.07091   -146048.82            0    -144034.2   -2999.0687 
   41200    487.32623   -146049.89            0   -144034.21   -3025.6653 
   41300    489.39631   -146058.46            0   -144034.22   -2944.4963 
   41400     489.7619   -146059.97            0   -144034.22   -3002.8146 
   41500    487.08215   -146048.88            0   -144034.21   -3104.4368 
   41600    488.92489   -146056.51            0   -144034.22   -2867.0498 
   41700    485.53031   -146042.45            0    -144034.2   -2913.3582 
   41800    487.78367   -146051.77            0   -144034.21   -2899.1765 
   41900    487.83539   -146051.99            0   -144034.21   -2961.0294 
   42000    486.47055   -146046.34            0    -144034.2   -2929.8327 
   42100     489.8749   -146060.45            0   -144034.23   -2954.4401 
   42200    487.40471   -146050.21            0   -144034.21   -3031.3479 
   42300    487.32641   -146049.88            0    -144034.2   -2864.5719 
   42400    487.64791   -146051.22            0   -144034.21   -2993.9368 
   42500    489.48459   -146058.81            0   -144034.21   -2748.6843 
   42600    487.41949   -146050.27            0   -144034.21   -2901.1038 
   42700    488.20425   -146053.53            0   -144034.22   -2991.7915 
   42800    486.64343   -146047.05            0    -144034.2   -2779.2227 
   42900    486.00556   -146044.41            0    -144034.2   -2847.0525 
   43000    485.52402   -146042.41            0   -144034.19   -2848.0869 
   43100    484.43715   -146037.92            0   -144034.19   -3131.3697 
   43200    488.02529   -146052.76            0   -144034.19   -2770.4019 
   43300    487.36688   -146050.05            0   -144034.21   -3022.5036 
   43400    487.58092   -146050.93            0    -144034.2   -2956.8341 
   43500     488.0367   -146052.83            0   -144034.21   -3057.1603 
   43600    486.21873    -146045.3            0   -144034.21   -2915.2146 
   43700    491.08185   -146065.44            0   -144034.23   -2911.7962 
   43800    489.35082   -146058.26            0   -144034.21    -3075.549 
   43900    487.12839   -146049.07            0   -144034.21   -3039.6471 
   44000     488.0988   -146053.08            0   -144034.21    -2967.296 
   44100    487.27814   -146049.68            0    -144034.2   -2908.1389 
   44200    487.50787   -146050.63            0    -144034.2   -2940.9861 
   44300    488.09504   -146053.07            0   -144034.21   -3083.3447 
   44400    485.32084   -146041.56            0   -144034.18   -2792.9729 
   44500    485.48564   -146042.26            0   -144034.19   -2977.8202 
   44600    487.42497   -146050.29            0    -144034.2    -2897.529 
   44700    489.20433   -146057.66            0   -144034.22   -3025.4145 
   44800    487.37795    -146050.1            0   -144034.21   -3004.2401 
   44900    487.75884   -146051.67            0    -144034.2   -2877.9708 
   45000    485.84631   -146043.74            0   -144034.18   -2738.8882 
   45100     482.5924   -146030.27            0   -144034.17    -3007.973 
   45200    486.68772   -146047.23            0   -144034.19   -2929.1174 
   45300    486.18935   -146045.17            0    -144034.2   -2944.2857 
   45400    487.67476   -146051.33            0   -144034.21   -3000.3379 
   45500    489.57931   -146059.21            0   -144034.22   -2961.2793 
   45600    489.13352   -146057.36            0   -144034.21   -2954.2257 
   45700    485.64783   -146042.93            0   -144034.19    -2942.791 
   45800    486.75716   -146047.53            0    -144034.2   -2944.1589 
   45900    487.65186   -146051.22            0    -144034.2   -2802.3037 
   46000    487.24796   -146049.55            0    -144034.2   -2821.3165 
   46100    485.41841   -146041.98            0    -144034.2   -2986.9105 
   46200    486.17754   -146045.12            0    -144034.2   -2867.5539 
   46300    487.93944   -146052.42            0   -144034.21   -2728.9645 
   46400    486.99581   -146048.52            0   -144034.21   -2987.9414 
   46500    486.92235   -146048.21            0    -144034.2   -2891.6442 
   46600    486.97072   -146048.39            0   -144034.19   -2780.8888 
   46700    486.02534   -146044.49            0    -144034.2   -2898.2175 
   46800    483.76536   -146035.14            0   -144034.19   -2926.5477 
   46900     486.3925   -146046.02            0    -144034.2   -2857.9478 
   47000    485.96838   -146044.25            0   -144034.19   -2796.5108 
   47100    488.70012   -146055.58            0   -144034.22   -2863.0662 
   47200     489.3871   -146058.42            0   -144034.22   -2958.3256 
   47300    484.74636    -146039.2            0   -144034.19   -2924.7647 
   47400    487.03867   -146048.69            0    -144034.2   -2714.7963 
   47500    485.95141   -146044.19            0    -144034.2   -2903.8059 
   47600    488.26461   -146053.77            0   -144034.21   -2809.9504 
   47700    484.79191   -146039.39            0   -144034.19   -2890.8701 
   47800    489.04887   -146057.01            0    -144034.2   -2782.2811 
   47900    484.51603   -146038.23            0   -144034.18    -2831.864 
   48000    485.78703    -146043.5            0   -144034.19   -2926.6388 
   48100    488.22661    -146053.6            0    -144034.2   -2698.6802 
   48200    487.73773    -146051.6            0   -144034.22   -3006.5604 
   48300    489.15433   -146057.46            0   -144034.22   -2928.2921 
   48400    485.22012   -146041.15            0   -144034.18    -2716.562 
   48500    485.20993   -146041.12            0    -144034.2   -2908.0568 
   48600    487.13219   -146049.07            0    -144034.2   -2880.0134 
   48700    486.74382   -146047.46            0    -144034.2   -2717.4635 
   48800    487.61993   -146051.11            0   -144034.21   -2950.5646 
   48900    489.88871   -146060.48            0   -144034.21   -2768.2138 
   49000    487.91517   -146052.33            0   -144034.21   -2939.9008 
   49100    487.48291   -146050.53            0   -144034.21   -2891.5372 
   49200    486.99987   -146048.52            0   -144034.19   -2799.3974 
   49300    488.16487   -146053.35            0   -144034.21   -2829.9379 
   49400    487.53864   -146050.76            0   -144034.21   -2962.1485 
   49500    489.24102    -146057.8            0   -144034.21   -2878.2186 
   49600    487.14222   -146049.11            0   -144034.19   -2999.4131 
   49700    487.69289   -146051.39            0    -144034.2   -2913.2991 
   49800    487.46464   -146050.45            0    -144034.2   -2887.1152 
   49900    484.03631   -146036.26            0   -144034.19   -2997.2655 
   50000    487.66005   -146051.24            0   -144034.18   -2698.4438 
   50100    486.23284   -146045.37            0   -144034.21   -3162.4838 
   50200    487.92191   -146052.34            0    -144034.2   -2846.0844 
   50300    485.72433   -146043.24            0   -144034.19   -2871.0251 
   50400     490.7903   -146064.22            0   -144034.21   -2797.7528 
   50500     483.7158   -146034.94            0    -144034.2   -3068.6838 
   50600    487.32168   -146049.86            0    -144034.2   -2849.2542 
   50700    486.79853    -146047.7            0    -144034.2   -2843.9014 
   50800    486.24191   -146045.38            0   -144034.19   -2793.1685 
   50900    484.74764    -146039.2            0   -144034.18   -2977.8742 
   51000    487.39861   -146050.17            0    -144034.2   -2887.6447 
   51100    484.95091   -146040.04            0   -144034.19    -3066.171 
   51200    490.68199   -146063.76            0    -144034.2   -2752.3799 
   51300    485.69293   -146043.12            0    -144034.2   -3186.6265 
   51400    489.09289    -146057.2            0   -144034.21   -3006.0699 
   51500    482.50901   -146029.93            0   -144034.18   -2906.6733 
   51600    488.80164   -146055.98            0    -144034.2   -2885.9716 
   51700    483.19849   -146032.78            0   -144034.18    -2938.385 
   51800    489.07461   -146057.12            0   -144034.21   -2799.0941 
   51900    487.40243   -146050.21            0   -144034.22   -3082.4324 
   52000    490.16113   -146061.62            0   -144034.22    -2819.087 
   52100     489.4046   -146058.49            0   -144034.22   -2893.1653 
   52200    488.25658   -146053.74            0   -144034.21   -3004.8774 
   52300    486.71798   -146047.36            0    -144034.2   -3010.8606 
   52400    485.23887   -146041.23            0   -144034.18   -3007.9133 
   52500    489.00558   -146056.83            0   -144034.21   -3000.1631 
   52600    489.02629   -146056.91            0   -144034.21   -3019.9757 
   52700    486.62261   -146046.97            0    -144034.2   -3079.2165 
   52800    489.25888   -146057.87            0    -144034.2   -2850.6296 
   52900    486.62468   -146046.97            0   -144034.19     -3112.99 
   53000    491.24499   -146066.09            0   -144034.21   -2851.1148 
   53100    484.02582    -146036.2            0   -144034.18   -3083.6393 
   53200    485.76817   -146043.41            0   -144034.18   -3016.3366 
   53300    486.71484   -146047.34            0   -144034.19   -3015.1501 
   53400    486.77061   -146047.57            0   -144034.19   -3036.5229 
   53500    487.93391   -146052.39            0    -144034.2   -2996.0011 
   53600    486.42748   -146046.15            0   -144034.19   -3001.6785 
   53700    488.39522    -146054.3            0    -144034.2   -3129.8556 
   53800    490.09342   -146061.32            0    -144034.2   -2810.5376 
   53900    484.92478   -146039.93            0   -144034.18   -3047.3617 
   54000    487.22172   -146049.43            0   -144034.19   -2935.3001 
   54100    487.61248   -146051.05            0   -144034.19   -2953.0287 
   54200    484.52896   -146038.29            0   -144034.18   -3078.6899 
   54300    487.47615    -146050.5            0    -144034.2     -3076.27 
   54400    487.38332   -146050.11            0   -144034.19   -3003.8492 
   54500    486.96938   -146048.39            0   -144034.19   -3063.8468 
   54600    485.42817   -146042.01            0   -144034.19   -3071.9742 
   54700    489.09981   -146057.21            0    -144034.2   -3045.8855 
   54800    490.22596   -146061.88            0   -144034.21   -2927.3521 
   54900    488.02525   -146052.77            0    -144034.2   -3207.6794 
   55000    485.95804    -146044.2            0   -144034.18   -3069.1045 
   55100    487.66747   -146051.27            0   -144034.18   -2907.4729 
   55200    486.19125   -146045.17            0   -144034.18   -2934.5165 
   55300    486.75366    -146047.5            0   -144034.19    -2983.369 
   55400    487.63185   -146051.14            0    -144034.2     -3031.89 
   55500    489.91912    -146060.6            0    -144034.2   -2930.4169 
   55600    488.02667   -146052.78            0    -144034.2   -3101.4562 
   55700    486.64566   -146047.05            0   -144034.19   -3026.5137 
   55800    485.38384   -146041.82            0   -144034.17   -2939.3395 
   55900    484.59962   -146038.57            0   -144034.17   -2981.3598 
   56000    487.29262   -146049.74            0    -144034.2   -3092.3173 
   56100    490.17134   -146061.66            0   -144034.21    -3010.643 
   56200    488.25353   -146053.71            0    -144034.2   -2860.4364 
   56300    488.03996   -146052.84            0   -144034.21   -3112.2459 
   56400    489.28396   -146057.98            0   -144034.21   -3035.0111 
   56500    488.52392   -146054.82            0   -144034.19   -2864.8557 
   56600    485.51629   -146042.38            0   -144034.19   -3192.7232 
   56700    486.63882   -146047.02            0   -144034.19   -2968.5687 
   56800    489.32123   -146058.13            0   -144034.21   -2883.0923 
   56900    485.34856   -146041.68            0   -144034.18   -2966.5805 
   57000    488.53083   -146054.86            0    -144034.2   -2934.0656 
   57100    488.26896   -146053.77            0   -144034.19   -2981.4183 
   57200    487.30835    -146049.8            0    -144034.2   -3052.9586 
   57300    487.08086   -146048.85            0   -144034.19   -3032.3131 
   57400    488.82309   -146056.08            0   -144034.21   -3062.7393 
   57500    490.56023   -146063.26            0   -144034.21    -2901.173 
   57600    485.06792   -146040.51            0   -144034.17   -2958.7608 
   57700    485.05161   -146040.45            0   -144034.18   -2902.7693 
   57800    486.29457   -146045.59            0   -144034.18   -3121.1196 
   57900     485.9867   -146044.31            0   -144034.18   -2924.5623 
   58000    487.67981   -146051.33            0   -144034.19   -3057.5749 
   58100    487.54576   -146050.79            0    -144034.2   -3101.4512 
   58200    487.06775    -146048.8            0   -144034.19   -3014.5491 
   58300    490.02607   -146061.04            0    -144034.2   -2918.3198 
   58400    487.56751   -146050.88            0   -144034.21   -3100.4611 
   58500    487.94957   -146052.45            0    -144034.2   -3057.4545 
   58600    490.01581   -146061.01            0   -144034.21   -3079.0769 
   58700    487.27183   -146049.64            0   -144034.19   -2950.3259 
   58800    488.08182      -146053            0    -144034.2   -3080.5015 
   58900    486.23775   -146045.37            0    -144034.2    -3153.777 
   59000    487.94706   -146052.44            0   -144034.19   -2949.7537 
   59100    484.85303   -146039.62            0   -144034.18   -3026.3853 
   59200    485.06008   -146040.48            0   -144034.18   -3017.3613 
   59300    487.63641   -146051.14            0   -144034.18   -2854.2384 
   59400    486.29208   -146045.59            0   -144034.19   -3191.3528 
   59500    488.05523   -146052.87            0   -144034.18   -2934.4695 
   59600    488.06358   -146052.92            0   -144034.19   -2964.4296 
   59700    485.01191   -146040.29            0   -144034.18   -3184.2119 
   59800    488.93645   -146056.52            0   -144034.19   -2827.0997 
   59900    486.76647   -146047.56            0    -144034.2   -3225.1311 
   60000    488.13146    -146053.2            0   -144034.19   -2991.4985 
   60100    485.03897   -146040.39            0   -144034.18   -2938.0501 
   60200    488.84662   -146056.17            0    -144034.2    -3038.874 
   60300    488.25701   -146053.73            0    -144034.2   -3165.5417 
   60400    489.56686   -146059.14            0    -144034.2   -2870.1535 
   60500    487.72165   -146051.51            0    -144034.2   -3127.7221 
   60600    485.93791   -146044.12            0   -144034.19   -3061.6136 
   60700    486.53265   -146046.57            0   -144034.18   -2935.6994 
   60800    487.78196   -146051.74            0   -144034.18     -3021.27 
   60900    487.63262   -146051.13            0   -144034.19   -3005.6683 
   61000     485.7025   -146043.15            0   -144034.19   -3151.7648 
   61100    489.61385   -146059.35            0   -144034.21   -3009.7265 
   61200    488.48635   -146054.68            0   -144034.21    -3025.821 
   61300    491.18644   -146065.87            0   -144034.23   -2944.0981 
   61400    486.22815   -146045.33            0    -144034.2   -3006.7309 
   61500    488.97923   -146056.71            0   -144034.19   -3076.6752 
   61600    483.95164   -146035.89            0   -144034.17   -3018.6249 
   61700    488.15038   -146053.29            0   -144034.21    -3118.311 
   61800    489.26485   -146057.91            0   -144034.21   -2989.0038 
   61900    490.46162   -146062.86            0   -144034.22   -3100.3594 
   62000    484.55354   -146038.38            0   -144034.17   -3000.8336 
   62100    485.32471   -146041.57            0   -144034.18   -2958.0869 
   62200    485.12234   -146040.74            0   -144034.18   -3024.0408 
   62300    484.57257   -146038.46            0   -144034.18   -3100.3683 
   62400     487.8228   -146051.93            0    -144034.2   -3153.1167 
   62500    487.15632   -146049.16            0   -144034.19   -3027.3294 
   62600     487.4847   -146050.52            0   -144034.19   -2862.5627 
   62700    483.95201    -146035.9            0   -144034.18   -3136.0872 
   62800    486.68091   -146047.19            0   -144034.19   -2982.3969 
   62900    486.98473   -146048.43            0   -144034.17   -2866.8079 
   63000    485.29126   -146041.44            0   -144034.18    -2992.393 
   63100    484.54651   -146038.36            0   -144034.18    -3050.938 
   63200    488.38398   -146054.25            0    -144034.2   -2996.0218 
   63300    486.96315   -146048.36            0   -144034.18   -3122.4866 
   63400    487.42687   -146050.28            0   -144034.19   -2986.0898 
   63500    487.62123    -146051.1            0    -144034.2   -3009.8924 
   63600    488.62714   -146055.26            0    -144034.2   -3002.7003 
   63700    487.18213   -146049.28            0    -144034.2   -2983.5914 
   63800    487.41969   -146050.26            0   -144034.19   -3048.6751 
   63900    488.39398   -146054.29            0    -144034.2   -3034.7823 
   64000    485.65584   -146042.96            0   -144034.19   -3084.6762 
   64100    487.68502   -146051.36            0    -144034.2   -2987.9672 
   64200    488.65324   -146055.37            0    -144034.2   -2942.1157 
   64300    486.54733   -146046.64            0   -144034.19   -3001.9749 
   64400    486.17383    -146045.1            0   -144034.19   -3049.4234 
   64500    489.26554    -146057.9            0   -144034.21   -2841.8619 
   64600    486.63621   -146047.03            0   -144034.21   -3022.9104 
   64700    488.07253   -146052.97            0    -144034.2   -2896.8748 
   64800     490.3382   -146062.36            0   -144034.22   -2944.1377 
   64900    488.30754   -146053.93            0    -144034.2   -2942.1408 
   65000    486.30272   -146045.64            0    -144034.2   -3047.8575 
   65100    487.53736   -146050.75            0    -144034.2   -2882.6187 
   65200    487.39126   -146050.15            0    -144034.2   -2957.3785 
   65300    489.87607   -146060.43            0   -144034.21    -2677.788 
   65400    484.41392   -146037.81            0   -144034.18   -3110.5089 
   65500    484.98455   -146040.18            0   -144034.19   -2937.5531 
   65600    489.98582   -146060.89            0   -144034.22   -2828.8846 
   65700    487.53113   -146050.74            0   -144034.21   -2935.3245 
   65800    488.06952   -146052.95            0    -144034.2   -2836.2301 
   65900    486.39142   -146045.99            0   -144034.18   -3026.7285 
   66000    486.91019   -146048.16            0    -144034.2   -3032.0831 
   66100    487.70225   -146051.44            0    -144034.2   -3028.4318 
   66200    486.96739   -146048.38            0   -144034.18   -2813.0925 
   66300    486.43915   -146046.21            0   -144034.21   -3271.6911 
   66400    486.90385   -146048.13            0    -144034.2    -3019.304 
   66500    489.49447   -146058.86            0   -144034.21   -2976.8632 
   66600    488.05621   -146052.89            0   -144034.19   -3138.3403 
   66700    486.73505   -146047.42            0   -144034.19   -3005.4295 
   66800    486.55852   -146046.68            0   -144034.18   -3054.6237 
   66900    485.27798   -146041.39            0   -144034.18   -3089.4542 
   67000    486.80342   -146047.71            0    -144034.2   -3030.3865 
   67100    487.23055   -146049.47            0   -144034.19   -3189.5674 
   67200    486.15509   -146045.02            0   -144034.19   -2918.9062 
   67300    488.90897   -146056.42            0    -144034.2   -3178.2933 
   67400    487.83045   -146051.96            0   -144034.19   -3037.1888 
   67500    485.43981   -146042.05            0   -144034.18   -3036.5681 
   67600     486.3683    -146045.9            0   -144034.19   -3137.4773 
   67700     488.6432   -146055.32            0   -144034.19   -2898.0015 
   67800    484.74618   -146039.19            0   -144034.18   -3212.9179 
   67900    489.14124   -146057.38            0   -144034.19   -2923.2457 
   68000    485.58733   -146042.67            0   -144034.19   -3123.1404 
   68100    488.08562      -146053            0   -144034.19    -2970.139 
   68200    485.41015   -146041.94            0   -144034.19   -3126.2792 
   68300    485.67138      -146043            0   -144034.17    -2959.301 
   68400    486.18296   -146045.15            0    -144034.2    -3131.547 
   68500    488.53345   -146054.88            0   -144034.21   -3205.8346 
   68600    487.51462   -146050.65            0    -144034.2   -3064.2418 
   68700    486.77946    -146047.6            0   -144034.19    -3014.992 
   68800    486.06596   -146044.65            0   -144034.19   -3080.2955 
   68900    487.61508   -146051.06            0   -144034.19   -2917.7861 
   69000    486.25997   -146045.46            0   -144034.19   -3143.5872 
   69100    488.20032   -146053.48            0   -144034.18   -3031.8057 
   69200    488.12936    -146053.2            0    -144034.2   -2930.1165 
   69300     484.9297   -146039.95            0   -144034.19   -3211.4902 
   69400    487.50352    -146050.6            0   -144034.19   -2845.7751 
   69500    486.70137   -146047.28            0   -144034.19   -2955.4832 
   69600    486.70745   -146047.31            0   -144034.19   -3025.3435 
   69700    484.83211   -146039.54            0   -144034.18   -3087.9998 
   69800    488.22558    -146053.6            0    -144034.2   -2992.7958 
   69900    490.71968   -146063.92            0   -144034.21   -2947.6354 
   70000    487.49034   -146050.56            0    -144034.2   -3118.7217 
   70100    489.91954   -146060.62            0   -144034.21   -3004.9785 
   70200    486.25783   -146045.44            0   -144034.19   -3058.1355 
   70300     485.8177   -146043.61            0   -144034.18   -2986.2506 
   70400    489.48358   -146058.81            0   -144034.21   -3048.1995 
   70500    488.59778   -146055.14            0    -144034.2    -3114.902 
   70600    488.43015   -146054.43            0   -144034.19   -3060.7567 
   70700    486.29107   -146045.57            0   -144034.17    -2984.811 
   70800    483.45576   -146033.85            0   -144034.18   -3316.4347 
   70900    487.02478   -146048.61            0   -144034.18   -2951.8505 
   71000    487.27683   -146049.66            0   -144034.19   -3147.9595 
   71100    488.12442   -146053.17            0   -144034.19   -2979.0006 
   71200    487.57352   -146050.89            0   -144034.19   -3013.2249 
   71300    489.18869   -146057.57            0   -144034.19   -3002.6935 
   71400    484.39925   -146037.75            0   -144034.18   -3177.4609 
   71500    488.72073   -146055.64            0    -144034.2    -2912.619 
   71600    484.48731   -146038.11            0   -144034.18   -3082.0174 
   71700    487.09452    -146048.9            0   -144034.18   -2795.6381 
   71800    486.99804   -146048.51            0   -144034.19   -2988.2094 
   71900     486.8202   -146047.78            0    -144034.2   -3017.2682 
   72000    490.47709   -146062.92            0   -144034.21   -3013.5625 
   72100    490.21429   -146061.82            0    -144034.2   -2991.6383 
   72200    490.24572   -146061.96            0   -144034.21    -3048.114 
   72300    485.86678   -146043.83            0   -144034.19   -3015.0846 
   72400    488.01137    -146052.7            0   -144034.19   -2884.2529 
   72500    487.72976   -146051.53            0   -144034.19   -2889.5661 
   72600    488.17108   -146053.38            0   -144034.21   -3016.3777 
   72700     488.8781    -146056.3            0    -144034.2   -2930.6599 
   72800    484.99255    -146040.2            0   -144034.18     -3153.08 
   72900    490.71204   -146063.88            0   -144034.19   -2761.5137 
   73000    484.98666   -146040.19            0   -144034.19   -3273.1218 
   73100    486.74052   -146047.43            0   -144034.18   -2767.2877 
   73200    486.27631   -146045.54            0    -144034.2   -3238.1598 
   73300    487.60852   -146051.03            0   -144034.19    -2872.231 
   73400    487.22929   -146049.48            0    -144034.2   -3258.1258 
   73500    487.73561   -146051.56            0   -144034.19   -3142.1161 
   73600    488.54401   -146054.91            0    -144034.2   -2960.5274 
   73700      486.871   -146047.98            0   -144034.19   -3212.7952 
   73800    488.13908   -146053.23            0   -144034.19   -3057.6157 
   73900     486.3315   -146045.75            0   -144034.19    -3025.759 
   74000    487.20155   -146049.35            0   -144034.19   -3013.1477 
   74100    486.61945   -146046.95            0    -144034.2   -3253.7386 
   74200    486.54663   -146046.63            0   -144034.17   -2936.8391 
   74300    488.70303   -146055.57            0    -144034.2   -3075.4161 
   74400    488.71321   -146055.61            0   -144034.19   -3147.1584 
   74500    488.84609   -146056.17            0   -144034.21    -3009.585 
   74600    487.11686   -146049.01            0    -144034.2   -3226.2562 
   74700    489.77003   -146060.01            0   -144034.22   -3113.9041 
   74800    485.95164   -146044.18            0   -144034.19   -3178.4775 
   74900    490.24582   -146061.95            0    -144034.2   -3054.3401 
   75000    485.75685   -146043.38            0   -144034.19    -3330.488 
   75100    491.15638   -146065.72            0    -144034.2   -2941.8468 
   75200    485.87103   -146043.84            0   -144034.18   -3171.5055 
   75300    487.80321   -146051.84            0   -144034.19   -3012.8852 
   75400    486.12408   -146044.89            0   -144034.19   -3249.0785 
   75500    489.20631   -146057.66            0   -144034.21    -3085.365 
   75600    486.33965   -146045.78            0   -144034.19   -3082.4351 
   75700    487.22558   -146049.45            0   -144034.19   -3132.1479 
   75800    488.57832   -146055.06            0    -144034.2   -3167.6667 
   75900    486.60614   -146046.89            0   -144034.19   -2998.2787 
   76000    487.48108   -146050.53            0   -144034.21   -3308.5218 
   76100    489.22292   -146057.72            0    -144034.2    -2891.868 
   76200    486.52692   -146046.56            0   -144034.19   -3017.2203 
   76300    485.74674   -146043.34            0    -144034.2   -3004.8256 
   76400    487.17944   -146049.28            0   -144034.21   -3139.9088 
   76500    488.49557   -146054.71            0    -144034.2   -2933.4498 
   76600    486.22352    -146045.3            0   -144034.18   -2885.6414 
   76700    487.18876   -146049.31            0    -144034.2   -3047.1778 
   76800    486.99145   -146048.49            0   -144034.19   -2956.7019 
   76900    489.57553   -146059.19            0   -144034.21   -3065.0828 
   77000    486.70476    -146047.3            0   -144034.19     -2984.47 
   77100    485.84577   -146043.75            0    -144034.2   -3147.7275 
   77200    490.33858   -146062.35            0   -144034.21   -3079.3087 
   77300    489.60385   -146059.31            0   -144034.21   -3128.0325 
   77400    488.02459   -146052.76            0   -144034.19   -3086.2654 
   77500    486.62599   -146046.97            0   -144034.19   -3150.8178 
   77600    486.06528   -146044.65            0   -144034.19   -3197.7976 
   77700     491.7776   -146068.29            0   -144034.21   -2987.8202 
   77800    485.67637   -146043.05            0   -144034.19   -3264.2513 
   77900    484.35767   -146037.57            0   -144034.17   -3153.3638 
   78000    488.08489   -146052.99            0   -144034.18   -2998.7059 
   78100    486.53026   -146046.57            0   -144034.18   -3065.1989 
   78200    486.93284   -146048.24            0   -144034.19   -3276.1775 
   78300    485.62663   -146042.83            0   -144034.18   -3038.8033 
   78400    485.51243   -146042.34            0   -144034.17   -3038.1515 
   78500    484.36836   -146037.62            0   -144034.18   -3133.0855 
   78600     488.1233   -146053.16            0   -144034.18   -3003.0894 
   78700    489.04407   -146056.99            0   -144034.21   -3199.5109 
   78800    487.80219   -146051.84            0    -144034.2   -3036.6979 
   78900    486.53762    -146046.6            0   -144034.18   -3074.8063 
   79000    486.45028   -146046.23            0   -144034.18   -2993.0472 
   79100    486.71456   -146047.34            0   -144034.19   -3177.9448 
   79200    489.13146   -146057.34            0    -144034.2   -3000.4543 
   79300    484.20694   -146036.95            0   -144034.17   -3126.6378 
   79400    486.09192   -146044.76            0   -144034.19   -3048.4788 
   79500    488.17114   -146053.36            0   -144034.19   -3042.1484 
   79600    486.39701   -146046.03            0   -144034.19   -3096.2854 
   79700     488.5963   -146055.13            0    -144034.2   -3289.5192 
   79800    488.47197   -146054.62            0    -144034.2   -3067.9538 
   79900    487.38335    -146050.1            0   -144034.19   -3164.3056 
   80000    487.93477   -146052.39            0    -144034.2   -3208.4672 
   80100    488.21871   -146053.56            0   -144034.19   -3163.2741 
   80200    486.07875    -146044.7            0   -144034.18   -3201.7673 
   80300     486.8155   -146047.75            0   -144034.19   -3069.4054 
   80400    487.05203   -146048.73            0   -144034.19   -3273.2063 
   80500    487.94534   -146052.43            0   -144034.19   -3086.1405 
   80600    488.39532   -146054.31            0   -144034.21   -3178.8186 
   80700    487.26428   -146049.62            0    -144034.2   -3142.3538 
   80800    485.89283   -146043.93            0   -144034.18   -3196.5139 
   80900    489.38527    -146058.4            0   -144034.21   -3045.7517 
   81000    486.49209   -146046.41            0   -144034.19   -3259.2145 
   81100    485.55171   -146042.52            0   -144034.19   -3166.7217 
   81200    488.40945   -146054.35            0   -144034.19   -2977.1492 
   81300    485.24787   -146041.27            0   -144034.19   -3258.8209 
   81400    488.25876   -146053.74            0    -144034.2   -3177.7157 
   81500    489.33903   -146058.21            0   -144034.21   -3070.1387 
   81600    486.23768   -146045.35            0   -144034.18    -3147.876 
   81700    485.40715    -146041.9            0   -144034.17   -3109.8264 
   81800    487.03105   -146048.64            0   -144034.19   -3142.3821 
   81900    485.19247   -146041.03            0   -144034.17   -3090.9892 
   82000    487.48493   -146050.52            0   -144034.18   -2959.8161 
   82100    485.20519    -146041.1            0    -144034.2   -3265.6215 
   82200    488.29553   -146053.89            0    -144034.2   -3089.3071 
   82300    488.65903   -146055.38            0   -144034.19    -3024.947 
   82400    487.34338   -146049.94            0    -144034.2   -3305.1904 
   82500     490.3848   -146062.53            0    -144034.2   -2984.9837 
   82600     487.2081   -146049.38            0   -144034.19   -3165.1421 
   82700    487.53012   -146050.72            0    -144034.2   -3142.1602 
   82800    485.31144   -146041.53            0   -144034.19   -3249.5166 
   82900    491.93549   -146068.96            0   -144034.22   -3015.7199 
   83000    486.63221   -146047.01            0    -144034.2   -3268.1959 
   83100    485.72367   -146043.23            0   -144034.18   -3104.7308 
   83200    490.91164   -146064.71            0    -144034.2   -2822.5852 
   83300    485.02184   -146040.34            0    -144034.2   -3399.4622 
   83400    489.68835   -146059.65            0    -144034.2   -2997.2029 
   83500    487.00257   -146048.54            0    -144034.2   -3091.1194 
   83600    490.70918   -146063.89            0   -144034.22   -3209.8547 
   83700     489.6049   -146059.32            0   -144034.21   -3242.5524 
   83800    489.31532   -146058.11            0   -144034.21   -3195.7085 
   83900    486.54958   -146046.65            0   -144034.19   -3214.8787 
   84000    487.62365   -146051.11            0    -144034.2   -3163.3896 
   84100    487.60533   -146051.02            0   -144034.19   -3027.0765 
   84200    484.92398   -146039.93            0   -144034.19   -3263.7237 
   84300    487.91751   -146052.32            0    -144034.2   -3021.4814 
   84400    485.87408   -146043.86            0   -144034.19   -3135.9919 
   84500    489.24943   -146057.82            0   -144034.19   -3062.5208 
   84600    487.47331   -146050.48            0    -144034.2   -3142.1138 
   84700    487.36983   -146050.05            0   -144034.19   -3051.2259 
   84800    482.65313   -146030.53            0   -144034.18   -3283.9073 
   84900    488.05533   -146052.88            0   -144034.18   -2971.9675 
   85000    487.84328   -146052.01            0    -144034.2    -3050.139 
   85100    484.65047   -146038.79            0   -144034.18   -3181.1153 
   85200    488.57241   -146055.02            0   -144034.19   -2890.2537 
   85300    483.66191    -146034.7            0   -144034.18   -3163.7253 
   85400    486.22465    -146045.3            0   -144034.18   -2892.1205 
   85500    485.52645   -146042.42            0   -144034.19   -3157.8196 
   85600    487.00883   -146048.56            0    -144034.2    -3045.405 
   85700    489.05287   -146057.03            0   -144034.21    -2875.104 
   85800    487.55315   -146050.81            0   -144034.19   -2999.7014 
   85900    487.20816   -146049.39            0    -144034.2   -3142.8831 
   86000    486.79944   -146047.69            0   -144034.19   -2914.7766 
   86100    487.55867   -146050.84            0    -144034.2   -3087.5259 
   86200    487.37399   -146050.07            0    -144034.2   -3095.5538 
   86300    488.51029   -146054.78            0   -144034.21   -2979.8623 
   86400    487.89475   -146052.23            0   -144034.21   -3112.7589 
   86500    488.50112   -146054.74            0    -144034.2   -3019.0305 
   86600    488.80422   -146055.99            0    -144034.2   -3061.7219 
   86700    487.40893   -146050.22            0    -144034.2   -3075.4464 
   86800     487.6111   -146051.05            0    -144034.2   -3000.9014 
   86900    487.38548   -146050.12            0    -144034.2   -3200.2845 
   87000    489.19667   -146057.61            0    -144034.2   -2907.7308 
   87100    486.69432   -146047.26            0   -144034.19   -3211.7833 
   87200    488.97491   -146056.71            0   -144034.21   -3080.2404 
   87300     486.3612   -146045.88            0   -144034.19    -3167.117 
   87400    490.47817   -146062.92            0   -144034.21   -3050.7989 
   87500     485.3194   -146041.57            0   -144034.19   -3104.1904 
   87600    489.84897   -146060.32            0   -144034.21   -3109.2103 
   87700    487.71917    -146051.5            0    -144034.2   -3136.3236 
   87800    488.72792   -146055.68            0   -144034.21    -3010.869 
   87900    488.84375   -146056.16            0   -144034.21   -3150.8462 
   88000    488.74801   -146055.76            0    -144034.2   -2989.9896 
   88100    486.57955   -146046.79            0    -144034.2   -3186.3733 
   88200    486.65366   -146047.09            0    -144034.2   -3135.4388 
   88300    489.20157   -146057.65            0   -144034.21   -3078.4311 
   88400    485.79468   -146043.53            0   -144034.19   -3102.9368 
   88500    487.88185   -146052.17            0    -144034.2   -3039.4647 
   88600    487.84674   -146052.03            0    -144034.2   -3219.9546 
   88700    486.83148   -146047.82            0   -144034.19   -2890.3543 
   88800    487.76771   -146051.71            0   -144034.21   -3047.3036 
   88900    487.32651   -146049.88            0    -144034.2   -3248.7785 
   89000    488.94138   -146056.56            0   -144034.21     -2931.93 
   89100    486.54595   -146046.65            0    -144034.2   -3022.8092 
   89200    488.83791   -146056.14            0   -144034.21   -3172.2192 
   89300    488.12679    -146053.2            0   -144034.21   -3135.0802 
   89400    485.79522   -146043.53            0   -144034.19   -3030.2198 
   89500    489.14934   -146057.43            0   -144034.21   -2965.8572 
   89600    484.27406   -146037.24            0   -144034.19   -3108.3589 
   89700    487.75096   -146051.63            0    -144034.2   -2976.5671 
   89800     488.4793   -146054.65            0    -144034.2   -3066.2869 
   89900    488.22041   -146053.59            0   -144034.22    -3154.096 
   90000    487.82651   -146051.97            0   -144034.22   -3176.9073 
   90100     490.0644   -146061.21            0   -144034.21   -2987.2559 
   90200    485.00924   -146040.28            0   -144034.19   -3198.9956 
   90300      486.031    -146044.5            0   -144034.18   -3011.2148 
   90400    486.81506   -146047.77            0    -144034.2   -3248.5328 
   90500    485.99047   -146044.34            0   -144034.19   -3165.0057 
   90600    487.79608   -146051.82            0    -144034.2   -3151.2972 
   90700    485.82365   -146043.66            0    -144034.2   -3247.7605 
   90800    490.33767   -146062.35            0   -144034.21   -3029.5734 
   90900    487.31574   -146049.84            0    -144034.2    -3219.051 
   91000    488.45699   -146054.56            0    -144034.2   -2968.7595 
   91100    486.62752   -146046.99            0    -144034.2   -3074.6049 
   91200    485.67026   -146043.02            0    -144034.2   -3178.9309 
   91300    488.98958   -146056.76            0    -144034.2    -2935.565 
   91400    485.09901   -146040.67            0   -144034.21   -3315.4382 
   91500    486.03082   -146044.51            0   -144034.19   -2836.1584 
   91600    487.95821   -146052.49            0    -144034.2   -2983.1998 
   91700    486.84977   -146047.92            0   -144034.21    -3182.853 
   91800    487.40325    -146050.2            0   -144034.21   -3148.3578 
   91900    485.07012   -146040.53            0   -144034.19   -3182.5856 
   92000    490.55176   -146063.24            0   -144034.22   -2960.1094 
   92100    486.13896   -146044.97            0   -144034.21   -3128.9516 
   92200    488.07653   -146052.98            0    -144034.2   -2952.2273 
   92300    488.37291    -146054.2            0    -144034.2   -3083.7569 
   92400    489.08821   -146057.18            0   -144034.22   -3042.2917 
   92500    482.78174   -146031.05            0   -144034.17   -3114.2934 
   92600     487.8194   -146051.91            0   -144034.19   -2894.4828 
   92700    486.94495   -146048.31            0   -144034.21   -3259.5952 
   92800    488.12776    -146053.2            0   -144034.21    -2990.856 
   92900    486.35979   -146045.88            0    -144034.2   -3120.7845 
   93000    486.91496   -146048.18            0   -144034.21   -3124.8385 
   93100    488.75103   -146055.78            0   -144034.21   -3142.9683 
   93200     486.9053   -146048.14            0    -144034.2   -3043.4829 
   93300    487.49192   -146050.57            0   -144034.21    -3135.965 
   93400     489.1115   -146057.27            0   -144034.21   -3154.5831 
   93500    489.34065   -146058.22            0   -144034.22   -3087.0223 
   93600    487.79506   -146051.83            0   -144034.22   -3309.0897 
   93700    491.38786    -146066.7            0   -144034.22    -3006.173 
   93800    487.82133   -146051.94            0   -144034.22   -3206.3253 
   93900    488.03184   -146052.81            0   -144034.21   -3047.6056 
   94000    488.66736   -146055.43            0   -144034.21   -3130.4971 
   94100    488.94546   -146056.59            0   -144034.22   -3102.2846 
   94200      488.987   -146056.75            0   -144034.21   -3152.5595 
   94300    485.21898   -146041.14            0   -144034.18   -3043.7049 
   94400    487.64255   -146051.19            0   -144034.21   -3205.9676 
   94500    487.70611   -146051.45            0    -144034.2   -3207.9595 
   94600    488.77439   -146055.86            0   -144034.19   -2904.8496 
   94700    485.82443   -146043.66            0   -144034.19   -3129.0061 
   94800    485.65957   -146042.98            0    -144034.2   -3210.9166 
   94900     488.0023   -146052.66            0   -144034.19   -2901.4828 
   95000    485.46611   -146042.17            0   -144034.19   -3106.5873 
   95100    486.52138   -146046.54            0   -144034.19   -2950.4092 
   95200    489.31402    -146058.1            0   -144034.21   -3038.8462 
   95300    487.33641   -146049.94            0   -144034.22    -3179.935 
   95400    487.90235   -146052.27            0   -144034.21   -3024.0844 
   95500    488.42365   -146054.42            0    -144034.2   -3106.6575 
   95600    487.60583   -146051.03            0    -144034.2   -2999.2476 
   95700    486.86593   -146047.98            0    -144034.2   -3063.0823 
   95800    487.33768   -146049.93            0   -144034.21   -3090.4741 
   95900    488.57284   -146055.04            0   -144034.21   -3036.3383 
   96000    488.71654   -146055.64            0   -144034.21   -3090.5328 
   96100    486.38095   -146045.95            0   -144034.19   -3049.8934 
   96200    487.61558   -146051.08            0   -144034.21   -3098.1332 
   96300    486.24119   -146045.37            0   -144034.18   -2948.7497 
   96400    485.74777   -146043.34            0   -144034.19   -3037.0872 
   96500    485.89366   -146043.94            0   -144034.19   -3035.6711 
   96600    490.04078   -146061.12            0   -144034.21    -3033.613 
   96700    487.80349   -146051.86            0   -144034.21   -3116.2193 
   96800     489.1131   -146057.27            0    -144034.2   -2902.0151 
   96900    487.35504      -146050            0   -144034.21   -3093.7523 
   97000    487.32031   -146049.86            0    -144034.2   -3115.0981 
   97100    487.90797   -146052.29            0   -144034.21   -3073.6679 
   97200     488.1829   -146053.42            0    -144034.2   -2990.7972 
   97300    486.42299   -146046.14            0    -144034.2   -3119.3433 
   97400    488.61442   -146055.21            0    -144034.2   -3036.8064 
   97500    484.72122   -146039.09            0   -144034.19   -2979.2374 
   97600    488.21506   -146053.55            0    -144034.2   -2876.0103 
   97700    485.75572   -146043.39            0   -144034.21   -3244.4516 
   97800    487.35747      -146050            0   -144034.19   -2817.2414 
   97900     487.3326    -146049.9            0    -144034.2   -3035.2808 
   98000    486.98538   -146048.47            0    -144034.2   -3178.9114 
   98100    488.12068   -146053.17            0   -144034.21   -2952.2279 
   98200    487.97332   -146052.56            0    -144034.2   -2987.1361 
   98300    486.89395    -146048.1            0   -144034.21   -3103.7188 
   98400    486.89663    -146048.1            0    -144034.2   -3046.7718 
   98500    489.60968   -146059.33            0   -144034.21   -2974.8781 
   98600    485.16033   -146040.92            0    -144034.2   -3195.7033 
   98700    487.09682   -146048.92            0   -144034.19   -2928.0311 
   98800    486.00747   -146044.43            0   -144034.21      -3188.3 
   98900    488.18075   -146053.41            0    -144034.2   -2973.5745 
   99000    488.92009   -146056.48            0   -144034.21   -2970.9798 
   99100    484.25146   -146037.14            0   -144034.18    -3103.495 
   99200    489.85154   -146060.35            0   -144034.22   -3020.3336 
   99300    488.39588   -146054.31            0   -144034.21   -2996.2916 
   99400    488.00185   -146052.68            0   -144034.21   -2973.5337 
   99500     487.0197   -146048.61            0    -144034.2   -3092.4347 
   99600    488.70939    -146055.6            0    -144034.2   -2965.8571 
   99700      487.297   -146049.76            0    -144034.2   -3089.3718 
   99800    487.26076    -146049.6            0    -144034.2    -2986.496 
   99900    487.25768   -146049.59            0   -144034.19   -3115.5185 
  100000    483.80793   -146035.31            0   -144034.19   -2989.8169 
  100100    486.28508   -146045.57            0    -144034.2   -3019.5898 
  100200    488.43594   -146054.47            0   -144034.21   -2953.6852 
  100300    485.02173   -146040.34            0   -144034.19   -3052.4297 
  100400    487.80368   -146051.85            0    -144034.2    -2993.008 
  100500    486.94193   -146048.29            0    -144034.2   -3148.8213 
  100600     487.9824    -146052.6            0   -144034.21   -3008.7658 
  100700     488.2337   -146053.63            0    -144034.2   -2936.4637 
  100800    485.29961   -146041.48            0   -144034.19    -3047.323 
  100900    485.17201   -146040.96            0   -144034.19   -3146.3729 
  101000    488.51039   -146054.78            0    -144034.2   -2913.1859 
  101100     487.7764   -146051.73            0   -144034.19   -3002.4214 
  101200    484.87676   -146039.75            0    -144034.2   -3351.7846 
  101300    492.78029   -146072.45            0   -144034.21   -2795.4603 
  101400    483.10398   -146032.39            0   -144034.17   -3180.6459 
  101500    487.56643   -146050.87            0    -144034.2   -3085.2616 
  101600    485.76733   -146043.42            0   -144034.19   -2988.3145 
  101700    487.43595   -146050.33            0    -144034.2   -3087.5363 
  101800    487.25046   -146049.56            0   -144034.19   -2975.8454 
  101900    487.14463   -146049.13            0    -144034.2   -3255.9085 
  102000    489.11776    -146057.3            0   -144034.21   -3047.8151 
  102100    487.51213   -146050.65            0    -144034.2   -3002.6669 
  102200    486.40994   -146046.08            0   -144034.19   -3036.8879 
  102300    484.70013      -146039            0   -144034.19    -2955.808 
  102400    485.83273   -146043.68            0   -144034.18   -2945.1605 
  102500    488.62062   -146055.23            0    -144034.2   -2932.3185 
  102600     484.7653   -146039.27            0   -144034.19   -3062.9018 
  102700     485.8538   -146043.77            0   -144034.18    -3052.208 
  102800    486.90753   -146048.13            0   -144034.19   -3021.9248 
  102900    486.16778   -146045.07            0   -144034.18   -2913.3449 
  103000    484.88918   -146039.79            0   -144034.19   -3135.1692 
  103100    485.98988   -146044.34            0   -144034.19   -3097.0481 
  103200    489.19983   -146057.62            0    -144034.2   -3103.3652 
  103300    486.68141    -146047.2            0    -144034.2   -3253.4272 
  103400    489.03578   -146056.95            0    -144034.2   -3019.3374 
  103500    487.98496    -146052.6            0    -144034.2   -3145.8403 
  103600     484.8829   -146039.76            0   -144034.19   -3235.4096 
  103700    489.25168   -146057.83            0   -144034.19   -3069.8224 
  103800    484.47312   -146038.05            0   -144034.18     -3127.47 
  103900    486.64911   -146047.07            0    -144034.2   -3148.5304 
  104000    489.14766   -146057.41            0    -144034.2   -3123.5181 
  104100     488.7296   -146055.68            0    -144034.2   -3170.7318 
  104200    489.19877   -146057.63            0   -144034.21   -3172.9718 
  104300    486.12117   -146044.89            0   -144034.19   -3194.8796 
  104400    487.63852   -146051.16            0   -144034.19   -3105.4701 
  104500    487.10796   -146048.97            0    -144034.2   -3007.6029 
  104600    485.50983   -146042.35            0   -144034.19   -3094.0458 
  104700    488.50971   -146054.78            0   -144034.21   -2959.1919 
  104800    488.66142    -146055.4            0    -144034.2   -3124.7521 
  104900    487.02999   -146048.65            0    -144034.2   -3058.7158 
  105000     487.6409   -146051.17            0    -144034.2    -2970.281 
  105100     487.3283   -146049.89            0   -144034.21   -3099.0644 
[...]
  975000    487.70702   -146051.35            0    -144034.1   -3169.9397 
  975100    486.57012   -146046.64            0   -144034.09    -3168.808 
  975200    485.79742   -146043.44            0   -144034.08   -3176.1304 
  975300    487.60756   -146050.94            0    -144034.1   -3074.4818 
  975400    488.21263   -146053.45            0   -144034.11   -3211.0143 
  975500    490.37564   -146062.39            0    -144034.1    -3091.195 
  975600    483.23408   -146032.84            0   -144034.09   -3452.1611 
  975700    487.83029   -146051.85            0   -144034.08   -2930.7296 
  975800     486.8355   -146047.74            0   -144034.09   -3223.6646 
  975900    485.81403   -146043.51            0   -144034.09   -3256.0487 
  976000    488.07171   -146052.86            0    -144034.1   -3010.6025 
  976100    488.12724    -146053.1            0   -144034.11   -3265.1785 
  976200    488.31528   -146053.87            0    -144034.1   -3069.4404 
  976300     489.2558   -146057.77            0   -144034.11   -3115.7294 
  976400     486.2355   -146045.26            0   -144034.09   -3127.3472 
  976500    487.62174      -146051            0    -144034.1   -3155.7031 
  976600    488.43028   -146054.34            0    -144034.1   -3043.2171 
  976700    486.15857   -146044.94            0   -144034.09   -3160.3582 
  976800    488.94192   -146056.46            0    -144034.1   -3007.8236 
  976900    487.40272    -146050.1            0   -144034.11   -3153.0094 
  977000    485.83598   -146043.61            0   -144034.09   -3169.4661 
  977100    490.83098    -146064.3            0   -144034.12   -3085.6275 
  977200    492.02698   -146069.24            0   -144034.12   -2992.6168 
  977300    483.60131   -146034.34            0   -144034.07   -3036.0233 
  977400    486.56772   -146046.64            0    -144034.1   -3253.3715 
  977500    486.86104   -146047.84            0   -144034.09   -2883.3487 
  977600    487.36197   -146049.92            0    -144034.1   -3013.7732 
  977700    484.46393   -146037.92            0   -144034.08   -3198.0547 
  977800    487.61798   -146050.98            0    -144034.1    -2925.273 
  977900     488.1576   -146053.22            0   -144034.11   -3162.0358 
  978000    487.03984   -146048.59            0   -144034.09    -3057.786 
  978100    489.18489   -146057.48            0   -144034.11   -3053.6524 
  978200    489.08652   -146057.07            0   -144034.11   -3120.9483 
  978300    487.01369   -146048.47            0   -144034.09   -3005.9058 
  978400    487.48856   -146050.44            0    -144034.1   -2945.4141 
  978500    485.24319   -146041.15            0   -144034.09   -3128.4902 
  978600    487.43825   -146050.23            0   -144034.09   -2931.8595 
  978700    486.21321   -146045.17            0    -144034.1   -3162.1624 
  978800     487.9183   -146052.22            0    -144034.1   -3047.3729 
  978900    488.47367   -146054.52            0    -144034.1   -3117.6424 
  979000    490.28945   -146062.07            0   -144034.13   -3225.8165 
  979100    489.09109   -146057.09            0   -144034.11   -2984.1394 
  979200    487.27572   -146049.58            0   -144034.11   -3146.5808 
  979300    490.24199   -146061.85            0   -144034.11   -3047.5123 
  979400    484.98773    -146040.1            0   -144034.09   -3131.7435 
  979500    488.18272   -146053.32            0    -144034.1   -3095.1165 
  979600    487.35643   -146049.89            0   -144034.09   -2984.5495 
  979700    482.42388   -146029.47            0   -144034.07   -3143.4642 
  979800    484.72835      -146039            0   -144034.07   -2934.0399 
  979900    484.55778    -146038.3            0   -144034.08    -3005.085 
  980000    485.61329   -146042.67            0   -144034.07   -3109.8054 
  980100    486.49141   -146046.31            0   -144034.09   -3076.5287 
  980200    487.40996   -146050.12            0    -144034.1   -2930.0255 
  980300    487.97501   -146052.46            0    -144034.1   -3038.3234 
  980400    485.52677   -146042.31            0   -144034.08   -3137.3667 
  980500    488.99274   -146056.68            0   -144034.11   -3016.0112 
  980600    486.46293   -146046.19            0   -144034.09   -3120.6786 
  980700    488.31065   -146053.85            0    -144034.1   -2987.3676 
  980800    486.49403   -146046.33            0    -144034.1    -3214.614 
  980900    485.98558   -146044.22            0   -144034.09   -2972.7153 
  981000     486.0634   -146044.54            0   -144034.09   -3107.5123 
  981100    486.42938   -146046.05            0   -144034.08   -3023.7758 
  981200    486.67027   -146047.06            0    -144034.1   -3189.9979 
  981300    487.50071    -146050.5            0    -144034.1   -3225.4034 
  981400    488.54024    -146054.8            0    -144034.1   -2996.4052 
  981500    490.00326   -146060.87            0   -144034.12   -2986.1699 
  981600    487.34034   -146049.84            0   -144034.11    -3191.148 
  981700    488.91779   -146056.37            0   -144034.11   -3052.9221 
  981800    486.86889   -146047.88            0    -144034.1   -3004.8655 
  981900    489.29256   -146057.91            0    -144034.1   -2940.9158 
  982000    485.42726   -146041.91            0   -144034.09   -3156.6697 
  982100    487.84504   -146051.91            0   -144034.09    -2980.605 
  982200    485.57413   -146042.52            0   -144034.09    -3156.988 
  982300    489.69318   -146059.58            0   -144034.11   -3011.1617 
  982400    488.63364   -146055.19            0    -144034.1   -3077.7985 
  982500    485.75765   -146043.27            0   -144034.08   -3176.5519 
  982600    489.39805   -146058.36            0   -144034.11   -3052.7951 
  982700    485.95264   -146044.08            0   -144034.09   -3200.6401 
  982800    490.44995   -146062.72            0   -144034.12    -3246.721 
  982900     487.9584   -146052.39            0    -144034.1   -3116.6491 
  983000    487.48809   -146050.45            0   -144034.11   -3147.9849 
  983100    486.65728   -146046.99            0   -144034.08   -3063.9101 
  983200    488.07821   -146052.88            0   -144034.09   -3142.5565 
  983300    489.14683   -146057.31            0   -144034.11   -3151.8339 
  983400    488.36039   -146054.06            0   -144034.11   -3282.2047 
  983500    491.10104    -146065.4            0   -144034.11   -3198.5979 
  983600    486.03101   -146044.42            0    -144034.1   -3324.7506 
  983700    488.27035   -146053.67            0   -144034.09   -3041.7537 
  983800    486.73206   -146047.31            0   -144034.09   -3222.9968 
  983900    486.29203   -146045.49            0   -144034.09   -3061.8333 
  984000    488.91414   -146056.34            0    -144034.1   -3136.8813 
  984100    486.90523   -146048.04            0    -144034.1   -3185.4817 
  984200    487.41489   -146050.13            0   -144034.09   -3124.5949 
  984300    485.08784    -146040.5            0   -144034.08   -3310.1901 
  984400    484.61947   -146038.55            0   -144034.07   -3115.6689 
  984500    483.50566   -146033.93            0   -144034.05   -2997.0752 
  984600    486.53335   -146046.48            0   -144034.09   -3366.0652 
  984700    486.61173    -146046.8            0   -144034.07   -3022.3902 
  984800    485.96848   -146044.15            0   -144034.09   -3214.3979 
  984900    487.33047   -146049.77            0   -144034.08   -3080.5644 
  985000    484.18798   -146036.76            0   -144034.07    -3278.095 
  985100    486.63007   -146046.89            0   -144034.09   -3375.9103 
  985200    490.32182   -146062.17            0    -144034.1   -3072.7067 
  985300    485.46395   -146042.06            0   -144034.08   -3270.1647 
  985400    490.58835   -146063.27            0    -144034.1   -3113.6378 
  985500    487.50843   -146050.53            0    -144034.1   -3232.4152 
  985600     488.6087   -146055.07            0   -144034.09    -3117.158 
  985700    486.27529   -146045.41            0   -144034.08   -3238.2508 
  985800    486.79689   -146047.57            0   -144034.08   -2999.0625 
  985900    486.11663   -146044.76            0   -144034.09    -3293.919 
  986000    488.20412    -146053.4            0    -144034.1   -3281.0037 
  986100    487.76946    -146051.6            0   -144034.09   -3066.5586 
  986200    486.24647    -146045.3            0   -144034.09    -3272.916 
  986300    485.10315   -146040.56            0   -144034.08   -3082.6509 
  986400    486.18026   -146045.03            0   -144034.09   -3279.6588 
  986500    488.64846   -146055.24            0    -144034.1   -3131.1414 
  986600    488.90812   -146056.32            0    -144034.1   -3191.9957 
  986700    488.44214    -146054.4            0    -144034.1   -3223.1664 
  986800    486.54632   -146046.54            0   -144034.09   -3078.5846 
  986900    485.71674    -146043.1            0   -144034.08   -3122.4482 
  987000    487.83032   -146051.86            0    -144034.1   -3072.9464 
  987100    487.10992   -146048.88            0    -144034.1   -3143.6144 
  987200    487.94747   -146052.35            0   -144034.11   -3115.2766 
  987300    486.26902   -146045.39            0   -144034.09   -2966.4904 
  987400    487.24397   -146049.43            0   -144034.09   -3048.9812 
  987500    486.21718   -146045.18            0   -144034.09   -3242.7486 
  987600    489.07855   -146057.01            0   -144034.09    -2959.529 
  987700    485.25389   -146041.19            0   -144034.09   -3409.9819 
  987800    490.63488   -146063.47            0    -144034.1   -3139.3622 
  987900    486.15344   -146044.92            0   -144034.09   -3152.9711 
  988000    486.20569   -146045.13            0   -144034.08   -3207.5103 
  988100    486.66475   -146047.02            0   -144034.08    -3166.584 
  988200    487.18264   -146049.16            0   -144034.07   -3106.9266 
  988300     486.9663   -146048.28            0   -144034.09    -3247.281 
  988400    489.30123   -146057.94            0    -144034.1   -3123.9057 
  988500    488.55667   -146054.87            0    -144034.1   -3040.4058 
  988600    488.04246   -146052.74            0   -144034.11   -3286.2811 
  988700    488.16755   -146053.25            0   -144034.09   -3197.3713 
  988800    486.39823   -146045.93            0   -144034.09   -3308.1066 
  988900    487.54753   -146050.69            0    -144034.1   -3227.5613 
  989000    489.72554   -146059.71            0   -144034.11   -3020.8855 
  989100    487.38458   -146050.03            0   -144034.11   -3257.8862 
  989200     488.1754   -146053.29            0   -144034.11   -3067.5767 
  989300    486.98726   -146048.37            0   -144034.09   -3158.2589 
  989400    488.09896   -146052.97            0    -144034.1   -3131.1863 
  989500    486.32934   -146045.64            0   -144034.09   -2996.3819 
  989600    485.68387   -146042.97            0   -144034.09   -3286.4714 
  989700    488.79002   -146055.83            0    -144034.1   -3128.9143 
  989800    486.17233   -146044.99            0   -144034.09   -3055.6941 
  989900    484.04956   -146036.21            0   -144034.09   -3249.4094 
  990000    487.19281   -146049.22            0   -144034.09   -3013.6714 
  990100    487.05402   -146048.64            0   -144034.09   -3018.8766 
  990200    485.73054   -146043.16            0   -144034.09    -3142.643 
  990300    488.83398   -146056.02            0   -144034.11   -3163.4881 
  990400    487.81091   -146051.77            0   -144034.09   -3089.6681 
  990500    486.11494   -146044.77            0    -144034.1   -3123.9781 
  990600    489.52113   -146058.87            0   -144034.11   -3130.6068 
  990700    487.79182   -146051.69            0   -144034.09   -3102.2506 
  990800    486.51417   -146046.41            0   -144034.09   -3119.4849 
  990900    488.66819   -146055.33            0   -144034.11   -3078.2483 
  991000    484.83594   -146039.47            0   -144034.09   -3220.7687 
  991100    489.30205   -146057.94            0   -144034.09    -2835.012 
  991200     485.1674   -146040.83            0   -144034.08    -3097.322 
  991300    487.97452   -146052.46            0    -144034.1   -3267.5023 
  991400    488.04191   -146052.74            0    -144034.1   -3148.9113 
  991500    488.42448   -146054.32            0    -144034.1   -3108.3033 
  991600    490.17686   -146061.57            0    -144034.1   -2960.5122 
  991700    484.27389   -146037.14            0   -144034.09   -3231.8359 
  991800    487.66382   -146051.17            0    -144034.1   -3013.6821 
  991900    491.21012   -146065.86            0   -144034.11   -3024.0395 
  992000    488.14481   -146053.17            0   -144034.11   -3071.9508 
  992100    488.62104   -146055.14            0   -144034.11   -3139.3084 
  992200    486.63263   -146046.91            0    -144034.1   -3165.3716 
  992300    489.73317   -146059.75            0   -144034.12   -3059.8029 
  992400    490.16732   -146061.54            0   -144034.11   -3031.7359 
  992500    485.30636   -146041.42            0    -144034.1   -3116.4854 
  992600    486.41594      -146046            0   -144034.09   -3067.4012 
  992700    485.79844   -146043.45            0   -144034.09   -3247.2206 
  992800    487.70298   -146051.33            0   -144034.09   -2987.3148 
  992900    488.81924   -146055.97            0   -144034.12   -3249.3949 
  993000    486.90945   -146048.06            0    -144034.1   -3193.8228 
  993100    488.02512   -146052.67            0    -144034.1   -3068.2398 
  993200    484.72737      -146039            0   -144034.08   -3211.0081 
  993300     488.0515   -146052.77            0   -144034.09   -3008.8859 
  993400    484.86706    -146039.6            0   -144034.09      -3246.5 
  993500    489.04197   -146056.88            0   -144034.11   -3065.2074 
  993600    485.99523   -146044.27            0    -144034.1   -3150.1809 
  993700    487.60549   -146050.93            0    -144034.1   -2905.0041 
  993800    489.16234   -146057.39            0   -144034.12   -3165.4042 
  993900    487.07064   -146048.73            0   -144034.11    -3131.559 
  994000    489.37634   -146058.27            0   -144034.12   -3112.8284 
  994100    486.29122   -146045.49            0    -144034.1   -3087.2634 
  994200    486.28094   -146045.44            0   -144034.09   -2841.1533 
  994300    483.93111   -146035.72            0   -144034.08    -3176.466 
  994400    487.50178   -146050.49            0   -144034.09   -3149.3198 
  994500    488.23957   -146053.56            0   -144034.11   -3001.1013 
  994600    487.97832   -146052.49            0   -144034.11    -3101.391 
  994700    486.84519   -146047.79            0    -144034.1   -3100.1534 
  994800    487.69431    -146051.3            0    -144034.1   -3133.7807 
  994900    487.71165   -146051.37            0    -144034.1   -3116.9242 
  995000    490.53442   -146063.06            0   -144034.12   -2981.5284 
  995100    487.15145   -146049.05            0    -144034.1   -3119.5464 
  995200    486.11075   -146044.74            0   -144034.09   -3140.6491 
  995300     486.4046   -146045.95            0   -144034.08   -3032.6259 
  995400    485.44483   -146041.99            0    -144034.1   -3140.2535 
  995500    488.90388   -146056.31            0    -144034.1   -3124.3537 
  995600     486.5766   -146046.68            0    -144034.1   -3161.2593 
  995700    486.95594   -146048.24            0   -144034.09   -2931.2528 
  995800    487.38206      -146050            0   -144034.09   -2980.9966 
  995900    488.51061   -146054.68            0    -144034.1   -2995.2363 
  996000    487.52542   -146050.61            0   -144034.11   -3041.9469 
  996100     488.7788   -146055.79            0   -144034.11   -2978.8666 
  996200    488.33469   -146053.96            0   -144034.11   -3001.2274 
  996300    488.74706   -146055.66            0    -144034.1   -3052.3118 
  996400    488.41022   -146054.27            0   -144034.11   -3043.0509 
  996500    487.02247   -146048.51            0   -144034.09   -2999.5307 
  996600    488.85084   -146056.09            0   -144034.11   -3039.9122 
  996700     487.8023   -146051.75            0   -144034.11   -3130.0108 
  996800    488.59261   -146055.02            0    -144034.1   -2977.1452 
  996900    487.82835   -146051.86            0   -144034.11   -3151.6228 
  997000    486.93956   -146048.18            0    -144034.1   -3098.5808 
  997100    485.47398    -146042.1            0   -144034.08   -3146.8044 
  997200    486.59033   -146046.72            0   -144034.09   -3143.2538 
  997300     488.1777    -146053.3            0    -144034.1   -2934.6564 
  997400    484.38347   -146037.59            0   -144034.08   -3146.4619 
  997500    486.52066   -146046.45            0    -144034.1    -3082.483 
  997600    488.91231   -146056.35            0   -144034.11   -3043.8426 
  997700    488.23055   -146053.52            0   -144034.11   -3023.2341 
  997800      487.227   -146049.37            0    -144034.1   -3087.5002 
  997900    487.45088    -146050.3            0   -144034.11   -3144.1409 
  998000    490.37368   -146062.39            0   -144034.11   -2921.4622 
  998100    487.86762   -146052.02            0    -144034.1   -3117.6413 
  998200    486.09233   -146044.67            0    -144034.1   -3082.6863 
  998300    488.74558   -146055.64            0    -144034.1   -2788.1951 
  998400    484.47764   -146037.97            0   -144034.08   -3051.9106 
  998500    486.69038   -146047.14            0   -144034.09   -3099.2309 
  998600    487.89892   -146052.15            0    -144034.1   -2994.5453 
  998700    485.26537   -146041.23            0   -144034.08   -2972.6203 
  998800    486.10472   -146044.72            0    -144034.1   -2947.8009 
  998900    488.04743   -146052.76            0    -144034.1   -2963.4639 
  999000    488.56018   -146054.88            0    -144034.1    -3067.373 
  999100    487.95903   -146052.39            0    -144034.1   -3061.7963 
  999200    488.40957   -146054.27            0   -144034.11   -3100.2641 
  999300    487.91541   -146052.22            0   -144034.11   -3170.7761 
  999400    488.67821   -146055.38            0   -144034.11    -2991.517 
  999500    488.30185   -146053.81            0    -144034.1   -2980.1773 
  999600    488.11338   -146053.04            0   -144034.11   -3119.0579 
  999700    487.08311   -146048.77            0    -144034.1   -2920.8747 
  999800    489.55383   -146058.99            0    -144034.1   -2900.2028 
  999900    488.27057   -146053.69            0   -144034.11   -3070.8135 
 1000000    487.06907    -146048.7            0   -144034.09     -2966.47 
Loop time of 2078.36 on 0 procs for 1000000 steps with 32000 atoms

Performance: 41.571 ns/day, 0.577 hours/ns, 481.148 timesteps/s
95.0% CPU use with 1 MPI tasks x no OpenMP threads

MPI task timing breakdown:
Section |  min time  |  avg time  |  max time  |%varavg| %total
---------------------------------------------------------------
Pair    | 354.7      | 354.7      | 354.7      |   0.0 | 17.07
Neigh   | 81.5       | 81.5       | 81.5       |   0.0 |  3.92
Comm    | 1399.1     | 1399.1     | 1399.1     |   0.0 | 67.32
Output  | 1.2894     | 1.2894     | 1.2894     |   0.0 |  0.06
Modify  | 153.8      | 153.8      | 153.8      |   0.0 |  7.40
Other   |            | 87.93      |            |       |  4.23

Nlocal:    32000 ave 32000 max 32000 min
Histogram: 1 0 0 0 0 0 0 0 0 0
Nghost:    11652 ave 11652 max 11652 min
Histogram: 1 0 0 0 0 0 0 0 0 0
Neighs:    0 ave 0 max 0 min
Histogram: 1 0 0 0 0 0 0 0 0 0
FullNghs:  527106 ave 527106 max 527106 min
Histogram: 1 0 0 0 0 0 0 0 0 0

Total # of neighbors = 527106
Ave neighs/atom = 16.4721
Neighbor list builds = 31275
Dangerous builds = 0
Total wall time: 0:34:39
