LAMMPS (10 Mar 2016)
package gpu 1
package gpu 1
# bulk Si via Tersoff

#include pak.kokkos

units		metal
atom_style	atomic

lattice		diamond 5.431
Lattice spacing in x,y,z = 5.431 5.431 5.431
region		box block 0 20 0 20 0 10
create_box	1 box
Created orthogonal box = (0 0 0) to (108.62 108.62 54.31)
  1 by 1 by 1 MPI processor grid
create_atoms	1 box
Created 32000 atoms

pair_style	tersoff
pair_coeff	* * Si.tersoff Si
mass            1 28.06

velocity	all create 1000.0 376847 loop geom

neighbor	1.0 bin
neigh_modify    delay 5 every 1

fix		1 all nve

timestep	0.001

thermo          100
run		1000000
Neighbor list info ...
  0 neighbor list requests
  update every 1 steps, delay 5 steps, check yes
  max neighbors/atom: 2000, page size: 100000
  master list distance cutoff = 4.2
  ghost atom cutoff = 7.4
  binsize = 2.1 -> bins = 52 52 26
Memory usage per processor = 9.96267 Mbytes
Step Temp E_pair E_mol TotEng Press 
       0         1000   -148173.22            0   -144037.03    7019.4493 
     100    430.57805   -145815.59            0   -144034.64   -14550.619 
     200    543.50161   -146282.52            0    -144034.5   -2111.4013 
     300    494.98021   -146081.56            0   -144034.23   -3957.6771 
     400    497.20035   -146090.69            0   -144034.17   -3083.3235 
     500    477.91576   -146010.85            0    -144034.1   -3175.8299 
     600    468.79551   -145973.15            0   -144034.12   -4942.9727 
     700    497.76178      -146093            0   -144034.16   -2378.1228 
     800    489.26315   -146057.85            0   -144034.17   -3813.4239 
     900    489.05419   -146056.98            0   -144034.16   -3244.4655 
    1000    483.16086   -146032.61            0   -144034.16   -3973.9694 
    1100    489.06746   -146057.03            0   -144034.16   -3233.3756 
    1200    487.15372   -146049.13            0   -144034.17   -3356.5639 
    1300    490.21018   -146061.78            0   -144034.17   -3633.9426 
    1400    487.19629   -146049.31            0   -144034.17   -3698.1172 
    1500    489.97736   -146060.82            0   -144034.18   -3455.1117 
    1600    488.02081   -146052.71            0   -144034.16   -3335.3044 
    1700    487.05995   -146048.75            0   -144034.17   -3553.1362 
    1800    487.87518   -146052.11            0   -144034.16   -3299.1268 
    1900    486.03071   -146044.47            0   -144034.16   -3402.8986 
    2000    486.69918   -146047.25            0   -144034.17   -3536.0827 
    2100    489.35659   -146058.23            0   -144034.15    -3076.483 
    2200    484.30717   -146037.35            0   -144034.16   -3570.1354 
    2300    488.85681   -146056.16            0   -144034.16   -3073.8328 
    2400    485.30389   -146041.48            0   -144034.16   -3469.1195 
    2500    488.50382   -146054.72            0   -144034.17   -3276.1018 
    2600    490.19632   -146061.72            0   -144034.17   -3113.1267 
    2700    482.64034   -146030.45            0   -144034.16   -3611.2281 
    2800    488.75181   -146055.74            0   -144034.16   -3133.8805 
    2900    485.96568   -146044.21            0   -144034.16   -3394.0725 
    3000    491.12398   -146065.58            0   -144034.19   -3580.2807 
    3100     489.5224   -146058.95            0   -144034.19   -3301.5151 
    3200    486.52484   -146046.53            0   -144034.17   -3325.7081 
    3300    489.34783   -146058.21            0   -144034.17   -3262.5916 
    3400    484.89803    -146039.8            0   -144034.17   -3540.7617 
    3500     489.7124   -146059.71            0   -144034.17    -3031.085 
    3600    486.88587   -146048.03            0   -144034.17   -3425.8886 
    3700    488.07686   -146052.95            0   -144034.17   -3390.0614 
    3800    488.00247   -146052.64            0   -144034.16   -2971.6936 
    3900    486.36223   -146045.87            0   -144034.18   -3507.3693 
    4000     488.3777    -146054.2            0   -144034.17   -3150.1165 
    4100    488.24383   -146053.65            0   -144034.18   -3308.8539 
    4200    484.67103   -146038.87            0   -144034.18   -3537.4425 
    4300    490.04127   -146061.08            0   -144034.18   -3135.4633 
    4400    488.27612    -146053.8            0   -144034.19   -3330.6092 
    4500    489.47149   -146058.73            0   -144034.18    -3088.614 
    4600    483.10887   -146032.39            0   -144034.16   -3371.7345 
    4700    488.77206   -146055.82            0   -144034.17   -3026.4927 
    4800    484.96403   -146040.08            0   -144034.17   -3411.3561 
    4900    487.68331   -146051.33            0   -144034.18   -3178.7668 
    5000    490.57749   -146063.31            0   -144034.18   -3042.7045 
    5100    483.23067   -146032.89            0   -144034.15   -3374.2928 
    5200    492.63735   -146071.84            0    -144034.2   -2867.6372 
    5300    483.70172   -146034.86            0   -144034.18   -3656.3449 
    5400    489.81997   -146060.17            0   -144034.18   -3031.5517 
    5500    486.22269   -146045.29            0   -144034.18   -3275.3058 
    5600    486.03519   -146044.51            0   -144034.17   -3302.4222 
    5700    488.81737   -146056.02            0   -144034.18   -3181.7261 
    5800     488.9293    -146056.5            0   -144034.19   -3332.6728 
    5900    491.14313   -146065.66            0    -144034.2   -3319.4468 
    6000    490.95984    -146064.9            0   -144034.19   -3196.4414 
    6100    485.81319   -146043.59            0   -144034.17   -3309.2801 
    6200    486.37867   -146045.94            0   -144034.18   -3207.9736 
    6300    485.57231   -146042.59            0   -144034.17   -2966.9181 
    6400    485.60758   -146042.74            0   -144034.17   -3129.0245 
    6500    486.49688   -146046.42            0   -144034.17   -3026.9499 
    6600    488.25252    -146053.7            0    -144034.2   -3214.7778 
    6700    485.10766   -146040.67            0   -144034.17   -3271.1893 
    6800    489.27613   -146057.92            0   -144034.18   -2956.1998 
    6900    486.39962   -146046.02            0   -144034.17   -3099.6254 
    7000    487.41884   -146050.24            0   -144034.18   -3029.5368 
    7100    488.69538   -146055.53            0   -144034.19    -3063.517 
    7200    485.94276   -146044.12            0   -144034.16   -2956.5723 
    7300     484.6347   -146038.73            0   -144034.18   -3289.3639 
    7400    490.59999   -146063.42            0    -144034.2   -3198.7718 
    7500    486.53506   -146046.59            0   -144034.18   -3223.0774 
    7600    487.51748   -146050.63            0   -144034.17   -3039.2822 
    7700     486.6386   -146046.99            0   -144034.16   -3054.6327 
    7800    485.02652   -146040.33            0   -144034.16   -3088.2984 
    7900     486.6673   -146047.13            0   -144034.18   -3180.4174 
    8000    489.77865   -146060.01            0   -144034.19   -3083.9482 
    8100      488.357   -146054.12            0   -144034.18   -2923.2815 
    8200    485.59319   -146042.68            0   -144034.17   -3282.0895 
    8300    487.44711   -146050.35            0   -144034.17   -3020.4606 
    8400    487.06832   -146048.79            0   -144034.18   -2864.5008 
    8500    488.30961   -146053.92            0   -144034.18    -2975.345 
    8600     486.3649   -146045.87            0   -144034.17   -3050.5165 
    8700    483.96792   -146035.95            0   -144034.17   -3270.1934 
    8800    489.48022   -146058.78            0   -144034.19   -2871.9287 
    8900     486.9968    -146048.5            0   -144034.19   -3300.2825 
    9000    489.96166   -146060.76            0   -144034.18   -2903.0453 
    9100    486.61892   -146046.94            0   -144034.19   -3265.5989 
    9200    490.37612   -146062.49            0   -144034.19   -2911.5814 
    9300    485.25782    -146041.3            0   -144034.18   -3197.7551 
    9400    488.51204   -146054.77            0   -144034.18   -3090.0334 
    9500    490.32132   -146062.26            0   -144034.19   -2932.0472 
    9600    485.54895   -146042.51            0   -144034.19   -3266.4007 
    9700    488.79756   -146055.94            0   -144034.18   -2949.4922 
    9800    489.35451   -146058.26            0    -144034.2   -3040.5891 
    9900    486.62498   -146046.96            0   -144034.18   -3045.4506 
   10000    483.75036   -146035.05            0   -144034.17   -3033.2841 
   10100    487.50252   -146050.59            0   -144034.19    -3054.387 
   10200    486.83567   -146047.82            0   -144034.17    -3024.517 
   10300    486.41584   -146046.09            0   -144034.18   -3001.8678 
   10400    487.77957   -146051.73            0   -144034.18   -2968.5505 
   10500    487.44981   -146050.38            0   -144034.19   -3111.3061 
   10600    490.01064   -146060.98            0    -144034.2   -2940.5276 
   10700     486.7484   -146047.47            0   -144034.18   -2963.4515 
   10800    487.68593   -146051.35            0   -144034.19   -3110.0892 
   10900    489.39671   -146058.44            0   -144034.19   -3149.8622 
   11000    488.07272   -146052.96            0    -144034.2   -3231.6837 
   11100    489.62738   -146059.38            0   -144034.18   -2946.3321 
   11200    486.65823    -146047.1            0   -144034.18   -3320.7658 
   11300    487.22174   -146049.43            0   -144034.18   -3008.4584 
   11400    489.39604   -146058.44            0    -144034.2   -3113.4353 
   11500    487.24965   -146049.53            0   -144034.18   -2851.8132 
   11600    484.33019   -146037.45            0   -144034.17   -3093.3194 
   11700    484.64868   -146038.78            0   -144034.17   -3167.2035 
   11800    488.44395   -146054.47            0   -144034.17   -2857.5832 
   11900    488.36194   -146054.15            0   -144034.19   -3130.7557 
   12000    485.99902   -146044.35            0   -144034.17    -3002.459 
   12100    487.09408    -146048.9            0   -144034.19   -2965.6337 
   12200    487.85643   -146052.06            0   -144034.19   -3121.3362 
   12300    488.16517   -146053.34            0   -144034.19   -3197.9692 
   12400    486.82381   -146047.78            0   -144034.18   -3089.4462 
   12500    486.43989   -146046.19            0   -144034.18   -2935.9828 
   12600    486.50238   -146046.45            0   -144034.18   -3084.5479 
   12700    486.67318   -146047.15            0   -144034.17   -2967.8309 
   12800    485.65042   -146042.92            0   -144034.17    -2782.541 
   12900     484.5532   -146038.39            0   -144034.18   -3044.6344 
   13000    488.66187   -146055.39            0   -144034.19   -2895.6006 
   13100    489.25715   -146057.86            0   -144034.19   -2984.9859 
   13200    486.46519   -146046.29            0   -144034.17   -2842.0257 
   13300    483.33136   -146033.33            0   -144034.17   -3048.0196 
   13400    489.49009   -146058.81            0   -144034.18   -2876.7315 
   13500    487.12489   -146049.02            0   -144034.18   -2790.9321 
   13600    486.73467   -146047.41            0   -144034.18   -2920.3921 
   13700    484.53183    -146038.3            0   -144034.18   -3011.5803 
   13800    489.55322   -146059.08            0   -144034.19   -2869.9017 
   13900    487.01181   -146048.55            0   -144034.18     -2878.62 
   14000    486.60011   -146046.86            0   -144034.18   -2977.2311 
   14100    486.59431   -146046.83            0   -144034.18   -2948.6403 
   14200    489.06817   -146057.07            0   -144034.19   -2905.7127 
   14300    490.29219   -146062.14            0    -144034.2   -2878.2163 
   14400     485.6751   -146043.04            0   -144034.19   -3208.9978 
   14500    487.43915   -146050.33            0   -144034.18   -3065.1621 
   14600    490.51138   -146063.05            0    -144034.2   -3053.6142 
   14700     486.9908   -146048.47            0   -144034.18    -2956.314 
   14800     486.3956   -146046.02            0   -144034.19   -3141.1013 
   14900    486.46042   -146046.26            0   -144034.17   -2953.4759 
   15000    485.71252   -146043.18            0   -144034.18   -3157.7827 
   15100    490.30673    -146062.2            0    -144034.2    -3009.453 
   15200    487.82406   -146051.93            0    -144034.2   -2983.4565 
   15300    488.61569    -146055.2            0   -144034.19   -2915.2408 
   15400    487.29112   -146049.72            0   -144034.19   -3097.6083 
   15500    488.06077    -146052.9            0   -144034.18   -2990.5806 
   15600    486.26072   -146045.44            0   -144034.17   -3045.7167 
   15700    486.76913   -146047.55            0   -144034.18   -3047.1681 
   15800    487.66991   -146051.28            0   -144034.18   -3075.8347 
   15900    488.86328   -146056.23            0   -144034.19   -2912.7324 
   16000     488.9093   -146056.41            0   -144034.19   -3080.3017 
   16100    484.72187   -146039.07            0   -144034.17    -2993.728 
   16200    488.08789   -146053.01            0   -144034.19   -3049.1511 
   16300    486.55794   -146046.66            0   -144034.17   -3000.9146 
   16400    489.45667   -146058.68            0   -144034.19   -2959.6906 
   16500    486.22151    -146045.3            0   -144034.19   -3278.6446 
   16600    489.08064   -146057.12            0   -144034.18   -2909.5113 
   16700    488.00348   -146052.67            0   -144034.19   -3147.6345 
   16800    488.24934   -146053.67            0   -144034.18   -2883.5156 
   16900    486.19906    -146045.2            0   -144034.19   -3262.8159 
   17000    489.08011   -146057.13            0    -144034.2   -3100.3904 
   17100    486.23408   -146045.33            0   -144034.17   -3045.2162 
   17200    490.60612   -146063.44            0    -144034.2   -2816.5964 
   17300    485.90151   -146043.98            0   -144034.19     -3359.29 
   17400    488.16527   -146053.34            0   -144034.19   -2974.5272 
   17500     490.6701   -146063.71            0    -144034.2    -3085.412 
   17600    487.39537   -146050.15            0   -144034.19   -3070.8025 
   17700    486.22942   -146045.32            0   -144034.18   -3053.3813 
   17800    485.90732   -146043.98            0   -144034.17   -3031.5984 
   17900    487.46721   -146050.45            0   -144034.19   -3248.0662 
   18000    488.94493   -146056.56            0   -144034.19   -3054.9827 
   18100    487.20764   -146049.37            0   -144034.18   -3078.9789 
   18200     488.6969   -146055.54            0    -144034.2   -3221.4037 
   18300    487.64677   -146051.19            0   -144034.18   -3116.6842 
   18400    487.61798   -146051.06            0   -144034.18   -2907.1691 
   18500    488.04522   -146052.84            0   -144034.19   -3066.0095 
   18600    486.62729    -146046.4            0   -144033.62   -2894.9993 
   18700    486.40916   -146045.49            0   -144033.61   -3004.1298 
   18800    485.13999   -146040.24            0   -144033.61   -2935.7107 
   18900    486.04848      -146044            0   -144033.61   -2982.6924 
   19000    488.72362   -146055.07            0   -144033.62   -2928.1098 
   19100    487.89116   -146051.64            0   -144033.62   -3060.1448 
   19200     485.2391   -146040.65            0    -144033.6   -2928.7167 
   19300    485.28018   -146040.83            0   -144033.62   -3017.6138 
   19400    487.10008   -146048.36            0   -144033.62   -3121.7875 
   19500    487.97094   -146051.96            0   -144033.62   -2904.5629 
   19600    486.06392   -146044.08            0   -144033.62   -3080.5514 
   19700    488.60062   -146054.57            0   -144033.62   -2906.5846 
   19800    486.14708   -146044.43            0   -144033.63   -3026.0152 
   19900    489.54054   -146058.48            0   -144033.64   -2971.9283 
   20000    487.69732   -146050.83            0   -144033.62   -2964.5201 
   20100    486.21054   -146044.68            0   -144033.61   -3097.6029 
   20200    486.80925   -146047.15            0   -144033.61   -2941.0368 
   20300    486.28545   -146044.99            0   -144033.62   -2981.6215 
   20400    489.12088   -146056.73            0   -144033.63     -2919.72 
   20500    488.13887   -146052.66            0   -144033.62   -2903.7815 
   20600    487.94894   -146051.88            0   -144033.63   -3035.4608 
   20700    488.58104    -146054.5            0   -144033.64   -2980.3252 
   20800    485.36112   -146041.17            0   -144033.63   -3097.8504 
   20900    489.18128   -146056.98            0   -144033.63   -2809.1173 
   21000    485.95557   -146043.62            0   -144033.62   -2903.7687 
   21100    486.31612   -146045.12            0   -144033.63   -3018.2504 
   21200       487.56   -146050.26            0   -144033.62   -2896.9632 
   21300    488.29907   -146053.32            0   -144033.62   -2828.5926 
   21400    486.31551   -146045.14            0   -144033.64   -3085.9038 
   21500    484.71441   -146038.49            0   -144033.62   -2990.4256 
   21600    488.99361   -146056.21            0   -144033.64   -2816.6207 
   21700    487.78296   -146051.18            0   -144033.62   -2746.1419 
   21800    488.74214   -146055.18            0   -144033.65    -2973.614 
   21900    486.92352   -146047.65            0   -144033.64   -3070.2332 
   22000    489.56678   -146058.57            0   -144033.63   -2775.3035 
   22100    486.79022   -146047.09            0   -144033.63   -2844.8676 
   22200    482.88243    -146030.9            0    -144033.6   -2745.4916 
   22300    485.20176   -146040.51            0   -144033.62   -2940.3495 
   22400    486.53563   -146046.03            0   -144033.63   -2933.2317 
   22500    492.29103   -146069.86            0   -144033.64   -2624.9333 
   22600    484.96972   -146039.55            0   -144033.62    -2953.337 
   22700    487.78199   -146051.19            0   -144033.63   -2913.4984 
   22800    487.05156   -146048.17            0   -144033.63   -2886.2457 
   22900    489.25992   -146057.31            0   -144033.64   -2857.4247 
   23000    487.67279   -146050.75            0   -144033.64   -2899.8747 
   23100    487.96755   -146051.97            0   -144033.64   -2989.8344 
   23200    485.87333   -146043.27            0   -144033.61   -2864.3566 
   23300    489.13203   -146056.78            0   -144033.63   -2890.9834 
   23400    485.34244   -146041.09            0   -144033.62   -2963.4822 
   23500    487.23679   -146048.94            0   -144033.63   -3014.6462 
   23600    487.92507   -146051.77            0   -144033.62   -2850.2729 
   23700     487.1255   -146048.47            0   -144033.63   -3082.2365 
   23800     486.6109   -146046.35            0   -144033.63   -2957.0759 
   23900    488.44066   -146053.91            0   -144033.63   -2892.4314 
   24000     487.8932   -146051.65            0   -144033.63   -2867.1611 
   24100    487.25542   -146049.02            0   -144033.64   -3102.5888 
   24200    489.96175   -146060.23            0   -144033.65   -3018.7197 
   24300    487.56415   -146050.28            0   -144033.62   -2759.3242 
   24400    486.19479   -146044.61            0   -144033.62   -2880.7135 
   24500    486.01724   -146043.89            0   -144033.62   -2845.4765 
   24600    484.53804   -146037.76            0   -144033.62   -2764.9926 
   24700    486.44708   -146045.67            0   -144033.63   -2905.2635 
   24800    490.27989   -146061.54            0   -144033.64     -2761.51 
   24900    487.28741   -146049.15            0   -144033.63   -2918.6756 
   25000    489.13768   -146056.81            0   -144033.64   -2883.1777 
   25100    485.41858   -146041.41            0   -144033.63   -3024.8593 
   25200    488.18788   -146052.87            0   -144033.63   -2845.6419 
   25300    488.23758   -146053.09            0   -144033.64   -2916.2247 
   25400     485.5603      -146042            0   -144033.63   -2933.6462 
   25500    489.27707   -146057.38            0   -144033.64   -2810.1425 
   25600    488.06781   -146052.39            0   -144033.65   -2859.9354 
   25700    489.24059   -146057.24            0   -144033.64   -2900.2355 
   25800    485.80001      -146043            0   -144033.63   -2916.0435 
   25900     486.9926   -146047.93            0   -144033.64   -2825.1229 
   26000    492.29001   -146069.86            0   -144033.65   -2590.3169 
   26100    486.72571   -146046.82            0   -144033.63   -2880.2219 
   26200    487.94382   -146051.88            0   -144033.65   -3058.2113 
   26300    490.72443   -146063.38            0   -144033.65   -2671.0329 
   26400    488.55527    -146054.4            0   -144033.64   -2776.7909 
   26500    485.62118   -146042.25            0   -144033.62   -2822.4725 
   26600    489.60728   -146058.75            0   -144033.64   -2717.2016 
   26700    487.58738   -146050.39            0   -144033.64   -2931.1056 
   26800    487.53589   -146050.17            0   -144033.62   -2702.6234 
   26900    486.27201   -146044.95            0   -144033.63    -2947.943 
   27000    487.63292   -146050.58            0   -144033.63   -2793.3737 
   27100    485.43355   -146041.47            0   -144033.62   -2763.5122 
   27200    486.73972   -146046.88            0   -144033.63   -2696.9633 
   27300     485.2816   -146040.84            0   -144033.62   -2881.4838 
   27400    487.29471   -146049.18            0   -144033.64   -2785.6505 
   27500    489.32264   -146057.58            0   -144033.64    -2752.479 
   27600     488.3597    -146053.6            0   -144033.65   -2941.4593 
   27700    487.80946    -146051.3            0   -144033.63   -2792.9909 
   27800    485.92947    -146043.5            0    -144033.6   -2754.9807 
   27900    486.78434   -146047.07            0   -144033.64   -3052.9812 
   28000    489.05489   -146056.46            0   -144033.63    -2896.437 
   28100    489.63982    -146058.9            0   -144033.65   -2941.1562 
   28200    487.82882   -146051.39            0   -144033.64   -2905.0377 
   28300    489.40012   -146057.91            0   -144033.65   -2876.5225 
   28400    487.94904   -146051.89            0   -144033.64   -2797.8382 
   28500    489.37546    -146057.8            0   -144033.65   -3040.8533 
   28600    488.10627   -146052.54            0   -144033.64   -2796.2766 
   28700    486.04837   -146044.03            0   -144033.63    -2981.845 
   28800    488.89921   -146055.81            0   -144033.63   -2725.9726 
   28900    487.81447   -146051.34            0   -144033.64   -2848.9318 
   29000    487.70829   -146050.89            0   -144033.63   -2773.5637 
   29100    489.46931   -146058.19            0   -144033.65   -2730.7092 
   29200    487.66747   -146050.73            0   -144033.65   -2949.8147 
   29300    488.47115   -146054.05            0   -144033.64   -2731.8028 
   29400    486.08205   -146044.16            0   -144033.63   -3002.9774 
   29500    486.67018   -146046.58            0   -144033.62   -2713.1262 
   29600    484.90273   -146039.27            0   -144033.62   -2895.3416 
   29700    486.09011   -146044.19            0   -144033.63   -2870.2507 
   29800    487.41697   -146049.68            0   -144033.63   -2708.3952 
   29900    486.68717   -146046.66            0   -144033.63   -2782.8499 
   30000     488.4025   -146053.77            0   -144033.64   -2891.3511 
   30100     487.2589   -146049.03            0   -144033.63   -2878.0582 
   30200     488.5225   -146054.27            0   -144033.64   -2872.2068 
   30300    486.41835   -146045.55            0   -144033.63   -2819.4728 
   30400    486.20954    -146044.7            0   -144033.64   -2986.5905 
   30500    485.69869   -146042.56            0   -144033.62   -2846.7581 
   30600    488.67948    -146054.9            0   -144033.63   -2908.7074 
   30700    487.69263   -146050.84            0   -144033.64   -3027.5083 
   30800    486.70293   -146046.73            0   -144033.63   -2918.9018 
   30900    489.50821   -146058.34            0   -144033.64   -2906.3429 
   31000    487.75366   -146051.08            0   -144033.63   -2809.9466 
   31100    487.11395   -146048.44            0   -144033.64   -3019.9847 
   31200    487.66024   -146050.68            0   -144033.63   -2867.2644 
   31300    490.10146    -146060.8            0   -144033.64   -2816.4314 
   31400    486.11455    -146044.3            0   -144033.63    -3108.403 
   31500    488.31723   -146053.41            0   -144033.64   -3012.8577 
   31600    487.14849   -146048.57            0   -144033.63   -2931.1993 
   31700    488.53325    -146054.3            0   -144033.63   -3032.3332 
   31800    486.36052   -146045.31            0   -144033.63   -2992.6007 
   31900    487.54112    -146050.2            0   -144033.63   -2993.2275 
   32000    487.26088   -146049.03            0   -144033.63   -2998.5146 
   32100    487.93646   -146051.83            0   -144033.63   -2918.7994 
   32200     485.4463   -146041.53            0   -144033.62   -3023.5443 
   32300    487.01647   -146048.03            0   -144033.64   -2876.5581 
   32400    488.44169   -146053.92            0   -144033.63   -2960.2689 
   32500    485.04548   -146039.86            0   -144033.62    -2906.505 
   32600    486.68702   -146046.67            0   -144033.63   -3095.3397 
   32700    488.70033   -146054.99            0   -144033.63   -2981.7425 
   32800    486.06465   -146044.08            0   -144033.62   -3069.6503 
   32900    486.90105   -146047.55            0   -144033.63   -3025.3543 
   33000     486.3253   -146045.17            0   -144033.63   -2964.3343 
   33100    485.62406   -146042.26            0   -144033.63   -3076.8759 
   33200    487.68582    -146050.8            0   -144033.63   -3036.5828 
   33300     486.1448   -146044.43            0   -144033.64   -2973.0474 
   33400     485.5274   -146041.85            0   -144033.61   -2952.5618 
   33500    486.58788   -146046.27            0   -144033.64   -3181.6353 
   33600    488.43068   -146053.88            0   -144033.64   -3015.6334 
   33700    487.35194   -146049.42            0   -144033.63   -2974.2591 
   33800    486.11272   -146044.29            0   -144033.64   -3141.4508 
   33900    490.95943   -146064.34            0   -144033.64   -2857.9341 
   34000    487.63314   -146050.59            0   -144033.64   -3245.2209 
   34100    488.07101   -146052.39            0   -144033.63   -2922.9359 
   34200    486.78478   -146047.07            0   -144033.63   -3106.8477 
   34300    487.81186   -146051.34            0   -144033.65   -3168.5803 
   34400    489.55076   -146058.53            0   -144033.65   -2958.8593 
   34500     488.9667    -146056.1            0   -144033.64   -3061.6756 
   34600     489.8954   -146059.97            0   -144033.67   -3075.6884 
   34700    488.31999   -146053.44            0   -144033.65   -3035.8575 
   34800     491.9468   -146068.46            0   -144033.67   -3034.6169 
   34900     488.9442   -146056.03            0   -144033.66   -3202.6264 
   35000    490.82627   -146063.81            0   -144033.66   -2952.6426 
   35100    487.68433   -146050.81            0   -144033.65   -3250.9853 
   35200     487.6011   -146050.45            0   -144033.63   -2933.2416 
   35300    488.44691   -146053.96            0   -144033.65     -3117.58 
   35400    488.67921   -146054.92            0   -144033.65   -3114.2406 
   35500    486.76078   -146046.97            0   -144033.63   -3008.4881 
   35600    488.45223   -146053.98            0   -144033.64   -3090.4429 
   35700    483.90667   -146035.15            0   -144033.62   -3089.9287 
   35800    488.41706   -146053.84            0   -144033.65   -3057.0051 
   35900     490.0452   -146060.57            0   -144033.65   -2936.2948 
   36000    486.42614    -146045.6            0   -144033.64    -3095.845 
   36100    487.23161   -146048.92            0   -144033.63   -2956.5163 
   36200    488.76803   -146055.28            0   -144033.64   -2954.5418 
   36300    484.88893   -146039.23            0   -144033.64   -3117.9233 
   36400    489.13573   -146056.81            0   -144033.65   -2859.0508 
   36500    485.43678    -146041.5            0   -144033.63   -3155.8375 
   36600    489.72815   -146059.25            0   -144033.64   -2999.8299 
   36700    486.75059   -146046.94            0   -144033.64   -3216.6591 
   36800    487.47602   -146049.93            0   -144033.64   -3044.1264 
   36900    487.18887   -146048.75            0   -144033.64    -3078.096 
   37000    485.93902   -146043.56            0   -144033.62   -2882.7573 
   37100    485.29354    -146040.9            0   -144033.63   -3064.3744 
   37200    486.09093   -146044.19            0   -144033.63   -3134.6471 
   37300     489.3273    -146057.6            0   -144033.65   -3030.6657 
   37400    487.82653   -146051.39            0   -144033.65    -3169.819 
   37500    488.48204    -146054.1            0   -144033.64   -2996.1656 
   37600    485.43669    -146041.5            0   -144033.64   -3285.7829 
   37700    490.21865   -146061.29            0   -144033.65   -2993.1341 
   37800    487.84262   -146051.46            0   -144033.65   -3271.4641 
   37900    489.96189   -146060.23            0   -144033.66   -3026.2546 
   38000    485.73606   -146042.74            0   -144033.64   -3182.2568 
   38100    487.78911   -146051.24            0   -144033.65   -2933.1105 
   38200    488.42984    -146053.9            0   -144033.65   -3168.5367 
   38300    484.97733   -146039.59            0   -144033.63   -3096.9504 
   38400    487.35528   -146049.45            0   -144033.65   -3104.5756 
   38500    488.74814   -146055.21            0   -144033.65   -2955.8387 
   38600      489.563   -146058.59            0   -144033.66   -3100.4963 
   38700    486.00229   -146043.85            0   -144033.65   -3036.0459 
   38800    487.67089   -146050.75            0   -144033.64   -2935.3539 
   38900    486.95106   -146047.77            0   -144033.65    -3091.087 
   39000    488.28122   -146053.27            0   -144033.65   -3049.1544 
   39100    482.88997   -146030.94            0   -144033.61   -2999.1928 
   39200    488.03877   -146052.27            0   -144033.65   -3108.0735 
   39300    489.90764   -146060.01            0   -144033.65   -3030.0858 
   39400    487.28201   -146049.14            0   -144033.65    -3164.285 
   39500    490.54517   -146062.65            0   -144033.66   -2899.3563 
   39600    486.65592   -146046.55            0   -144033.65   -3007.5738 
   39700    487.33387   -146049.36            0   -144033.65   -3064.3745 
   39800    487.80745   -146051.31            0   -144033.65   -2883.1441 
   39900    485.97318   -146043.71            0   -144033.63    -2932.911 
   40000    490.19903    -146061.2            0   -144033.64   -2706.1799 
   40100    484.34698      -146037            0   -144033.64   -3084.4683 
   40200    488.13328   -146052.64            0   -144033.63   -2689.6507 
   40300    485.95473   -146043.65            0   -144033.64   -3149.4292 
   40400    487.99371   -146052.09            0   -144033.65   -2964.6235 
   40500    487.74367   -146051.05            0   -144033.65    -2888.909 
   40600    487.80628   -146051.31            0   -144033.65   -2957.0586 
   40700    487.99179   -146052.08            0   -144033.65   -3069.8701 
   40800    490.84964   -146063.92            0   -144033.67   -3113.7765 
   40900    488.75448   -146055.23            0   -144033.65   -2903.0453 
   41000    488.19737   -146052.93            0   -144033.65   -3023.0425 
   41100    487.20612   -146048.83            0   -144033.65   -2967.5196 
   41200     486.9823    -146047.9            0   -144033.65   -2986.7579 
   41300    489.00521   -146056.28            0   -144033.66    -2883.062 
   41400    487.77568   -146051.19            0   -144033.66    -3100.286 
   41500    488.85487   -146055.66            0   -144033.66   -2906.7182 
   41600    487.96378   -146051.97            0   -144033.66   -3079.4377 
   41700    487.35565   -146049.46            0   -144033.66   -3053.3928 
   41800    488.71815   -146055.09            0   -144033.65   -2927.6766 
   41900    485.12083   -146040.19            0   -144033.64   -3027.9357 
   42000    485.66974   -146042.46            0   -144033.63   -2867.5797 
   42100    484.59338   -146038.01            0   -144033.64   -3041.9184 
   42200    489.05473   -146056.49            0   -144033.66   -2865.9666 
   42300    488.81717    -146055.5            0   -144033.65   -2984.1357 
   42400     489.4027   -146057.93            0   -144033.66   -3031.3907 
   42500    487.65921   -146050.71            0   -144033.65   -3082.8391 
   42600    487.58304   -146050.39            0   -144033.65   -3007.1362 
   42700    491.12549   -146065.07            0   -144033.68   -2913.7713 
   42800    488.34067   -146053.52            0   -144033.65   -3014.5443 
   42900    483.66175   -146034.15            0   -144033.63   -3026.3782 
   43000    488.69931   -146055.01            0   -144033.65   -2837.4882 
   43100    486.96545   -146047.84            0   -144033.65   -2949.8468 
   43200    487.96071   -146051.97            0   -144033.67   -3188.5774 
   43300    488.03158   -146052.26            0   -144033.66   -2959.2167 
   43400    485.41264   -146041.41            0   -144033.64   -2996.6461 
   43500    489.85128   -146059.78            0   -144033.65   -2868.7237 
   43600    485.58662   -146042.13            0   -144033.65   -3090.4516 
   43700    487.89318   -146051.67            0   -144033.65   -2972.0222 
   43800    486.44337   -146045.68            0   -144033.66    -2925.135 
   43900    488.73017   -146055.15            0   -144033.67   -3006.6842 
   44000    489.47644   -146058.24            0   -144033.67   -2958.4557 
   44100     488.3018   -146053.37            0   -144033.66   -2989.4311 
   44200    484.34747      -146037            0   -144033.64   -2967.6251 
   44300    488.93352   -146055.98            0   -144033.66   -3004.8801 
   44400    488.52361   -146054.29            0   -144033.66   -3108.2617 
   44500    488.44935   -146053.97            0   -144033.65    -2860.309 
   44600    487.29004   -146049.18            0   -144033.65   -3191.3364 
   44700    485.95925   -146043.66            0   -144033.64   -2973.4921 
   44800    487.41656   -146049.71            0   -144033.66   -3176.5865 
   44900    489.20879   -146057.11            0   -144033.65   -2950.6547 
   45000    485.20165   -146040.53            0   -144033.64   -3071.9767 
   45100    491.24904   -146065.57            0   -144033.67   -3053.7363 
   45200    487.73263   -146051.01            0   -144033.66   -3126.4023 
   45300    487.70276   -146050.88            0   -144033.65    -2989.622 
   45400    487.39505    -146049.6            0   -144033.64   -2945.8581 
   45500    487.44818   -146049.81            0   -144033.63   -2953.8299 
   45600    485.09207   -146040.07            0   -144033.63   -3029.5214 
   45700    488.39797   -146053.76            0   -144033.65   -3128.0324 
   45800    489.72371   -146059.26            0   -144033.67   -2964.3709 
   45900    486.84883   -146047.35            0   -144033.65   -3142.9398 
   46000    489.08742   -146056.62            0   -144033.66   -2980.2379 
   46100    487.23835   -146048.96            0   -144033.65    -3114.906 
   46200    488.76682   -146055.29            0   -144033.66   -2953.7347 
   46300    487.31903    -146049.3            0   -144033.65    -3140.049 
   46400    487.65605    -146050.7            0   -144033.66   -2945.9117 
   46500    486.64598   -146046.52            0   -144033.65   -3032.3649 
   46600    486.90479   -146047.58            0   -144033.64   -3141.5054 
   46700    490.86806   -146063.99            0   -144033.67    -2988.095 
   46800    487.74374   -146051.06            0   -144033.65   -2951.7797 
   46900    486.53473   -146046.05            0   -144033.65   -3103.5113 
   47000    488.37492   -146053.66            0   -144033.65   -2816.7728 
   47100    486.15639   -146044.48            0   -144033.64   -3160.4005 
   47200    488.76022   -146055.26            0   -144033.65   -2880.1067 
   47300     486.9497   -146047.78            0   -144033.66   -3210.9801 
   47400    488.95923   -146056.07            0   -144033.64   -2834.7966 
   47500    485.80897   -146043.04            0   -144033.64   -2881.8266 
   47600    488.98688   -146056.21            0   -144033.66   -2945.5494 
   47700    486.23604   -146044.81            0   -144033.64   -2974.2691 
   47800    491.49142   -146066.57            0   -144033.66   -2786.2035 
   47900    483.74042   -146034.47            0   -144033.62   -3000.0937 
   48000    490.21939    -146061.3            0   -144033.66   -2792.2096 
   48100    486.54795   -146046.11            0   -144033.65   -3090.5455 
   48200    488.46005   -146054.02            0   -144033.66   -2795.4458 
   48300     488.0205   -146052.22            0   -144033.67   -3073.5625 
   48400    487.05264    -146048.2            0   -144033.65   -2798.5108 
   48500    486.52719   -146046.01            0   -144033.64   -2859.3725 
   48600    486.77599   -146047.03            0   -144033.63   -2714.9307 
   48700    483.54606   -146033.66            0   -144033.62   -2940.7213 
   48800    487.71793   -146050.94            0   -144033.64   -2854.7106 
   48900    487.81878   -146051.36            0   -144033.65   -3076.7135 
   49000    486.87706   -146047.46            0   -144033.64   -2985.1218 
   49100    487.28739   -146049.16            0   -144033.64   -2928.7409 
   49200    484.58129   -146037.95            0   -144033.63   -3070.8606 
   49300    486.72832   -146046.85            0   -144033.64   -3017.1757 
   49400     490.1598   -146061.05            0   -144033.66   -2907.2588 
   49500    488.85977   -146055.68            0   -144033.66   -2999.0143 
   49600    485.00198   -146039.69            0   -144033.63   -3062.3408 
   49700    487.20322    -146048.8            0   -144033.64   -3122.6899 
   49800     485.4559   -146041.57            0   -144033.63   -3062.6502 
   49900    488.83854   -146055.58            0   -144033.65    -3022.551 
   50000     486.1547   -146044.46            0   -144033.63   -3181.7235 
   50100    484.62393   -146038.12            0   -144033.62   -2998.8027 
   50200    487.60057   -146050.44            0   -144033.63   -3015.5869 
   50300    489.67258   -146059.03            0   -144033.65    -3039.162 
   50400    488.07195   -146052.41            0   -144033.65   -3142.0455 
   50500    489.69897   -146059.15            0   -144033.65   -2999.6756 
   50600    489.03146   -146056.38            0   -144033.65   -3067.2699 
   50700    486.52746   -146046.01            0   -144033.63   -2987.6447 
   50800    487.78999   -146051.23            0   -144033.64   -3024.0892 
   50900    489.16272   -146056.93            0   -144033.66   -3067.6156 
   51000    488.45052   -146053.97            0   -144033.65   -3102.0947 
   51100    488.77104    -146055.3            0   -144033.65   -3035.6141 
   51200    485.34403   -146041.11            0   -144033.63   -3051.6615 
   51300     488.6423   -146054.76            0   -144033.64   -3096.7523 
   51400    485.75565   -146042.81            0   -144033.63   -2979.6817 
   51500    489.28863   -146057.44            0   -144033.65   -2972.8754 
   51600    484.52233    -146037.7            0   -144033.62   -3132.0929 
   51700    488.43792   -146053.92            0   -144033.65   -2945.2195 
   51800    487.69282   -146050.83            0   -144033.64   -3035.3831 
   51900    489.51012   -146058.37            0   -144033.66   -3102.3403 
   52000    487.60035   -146050.45            0   -144033.64    -3093.259 
   52100    487.62415   -146050.55            0   -144033.64   -3095.0837 
   52200     490.0399   -146060.54            0   -144033.64   -3064.6323 
   52300    483.66236   -146034.15            0   -144033.63   -3209.6031 
   52400    487.23834   -146048.94            0   -144033.63   -3067.1214 
   52500    487.23222   -146048.92            0   -144033.63    -3072.583 
   52600    487.97267   -146051.99            0   -144033.64   -3111.5779 
   52700    488.09252    -146052.5            0   -144033.65   -3159.6994 
   52800    489.36059   -146057.75            0   -144033.66   -3123.8995 
   52900    487.50504   -146050.06            0   -144033.64   -3071.1675 
   53000    487.14311   -146048.57            0   -144033.65   -3314.3738 
   53100    488.79156   -146055.38            0   -144033.65   -3083.4367 
   53200    485.76218   -146042.84            0   -144033.64   -3337.8552 
   53300    490.43413   -146062.19            0   -144033.66   -2926.1377 
   53400    487.55042   -146050.26            0   -144033.65   -3301.3416 
   53500    485.20975   -146040.54            0   -144033.62   -3147.0539 
   53600    486.60341   -146046.31            0   -144033.62   -2960.3799 
   53700    490.66457   -146063.15            0   -144033.66    -3115.996 
   53800    486.31686   -146045.14            0   -144033.64    -3120.689 
   53900    489.34707   -146057.68            0   -144033.65   -3145.7821 
   54000     489.7425   -146059.32            0   -144033.65   -3157.0821 
   54100    489.33773   -146057.65            0   -144033.65   -3187.9548 
   54200    488.89921   -146055.84            0   -144033.66   -3226.2688 
   54300    488.00392   -146052.12            0   -144033.64    -3196.339 
   54400    491.72953   -146067.55            0   -144033.66   -3154.2364 
   54500     487.0857   -146048.32            0   -144033.64   -3236.3305 
   54600    484.76864   -146038.72            0   -144033.63   -3174.4929 
   54700    485.62506   -146042.26            0   -144033.62   -3044.7909 
   54800    487.08582   -146048.32            0   -144033.64   -3210.0281 
   54900    487.93935   -146051.85            0   -144033.64   -3064.0021 
   55000     486.1288   -146044.36            0   -144033.64   -3302.6909 
   55100    487.50225   -146050.05            0   -144033.64    -2973.592 
   55200    487.05828   -146048.22            0   -144033.65   -3167.7102 
   55300     486.6634   -146046.58            0   -144033.64   -3049.9169 
   55400    488.61013   -146054.65            0   -144033.66     -3150.64 
   55500    487.94415   -146051.87            0   -144033.64   -2998.6531 
   55600    486.61296   -146046.37            0   -144033.64   -3087.3209 
   55700     486.3286   -146045.19            0   -144033.64   -3141.9209 
   55800     488.2088   -146052.96            0   -144033.64   -2905.9051 
   55900    485.95556   -146043.64            0   -144033.63    -3157.803 
   56000    487.94728   -146051.89            0   -144033.64   -3042.2232 
   56100    488.70557   -146055.04            0   -144033.66   -3214.6661 
   56200    488.24166   -146053.12            0   -144033.66   -3039.8265 
   56300    489.02076   -146056.34            0   -144033.66   -3120.2948 
   56400    489.84313   -146059.75            0   -144033.66   -3111.6131 
   56500    488.72207   -146055.11            0   -144033.66   -3183.5998 
   56600    487.36753    -146049.5            0   -144033.66   -3207.9367 
   56700    490.63636   -146063.03            0   -144033.66   -3141.0087 
   56800    488.88989    -146055.8            0   -144033.65   -3159.4854 
   56900    488.29763   -146053.35            0   -144033.66   -3066.7181 
   57000    489.48642   -146058.27            0   -144033.66   -3335.5504 
   57100    487.92158   -146051.78            0   -144033.64   -3058.7813 
   57200    489.45724   -146058.15            0   -144033.65    -3152.964 
   57300    487.54519   -146050.22            0   -144033.64   -3181.0949 
   57400    485.47792   -146041.67            0   -144033.64   -3273.0887 
   57500    487.96336   -146051.95            0   -144033.64   -3025.8616 
   57600    487.93726   -146051.85            0   -144033.65   -3066.9844 
   57700    486.90002   -146047.54            0   -144033.63   -3054.9652 
   57800       486.54   -146046.08            0   -144033.66   -3376.6465 
   57900    489.20471    -146057.1            0   -144033.65   -2832.5412 
   58000    484.63571   -146038.18            0   -144033.63    -3194.197 
   58100    487.00507   -146047.98            0   -144033.63   -2978.5221 
   58200    486.14585   -146044.42            0   -144033.63    -3145.719 
   58300    488.79128   -146055.38            0   -144033.65   -3079.7304 
   58400    485.89513   -146043.39            0   -144033.63   -3210.9912 
   58500    488.57701   -146054.51            0   -144033.66    -3229.776 
   58600    488.72877   -146055.12            0   -144033.64   -2936.1567 
   58700    486.73156   -146046.87            0   -144033.65    -3256.167 
   58800    487.61035    -146050.5            0   -144033.65   -3013.4816 
   58900    487.62867   -146050.57            0   -144033.64   -3004.9816 
   59000    487.39952   -146049.64            0   -144033.67   -3294.9057 
   59100    492.70974   -146071.62            0   -144033.67   -2933.8038 
   59200    487.32518   -146049.33            0   -144033.66   -3296.6025 
   59300    491.10484   -146064.97            0   -144033.67   -2932.8173 
   59400    485.22084   -146040.62            0   -144033.65   -3195.3018 
   59500    486.57058    -146046.2            0   -144033.64   -2928.8721 
   59600    485.88417   -146043.36            0   -144033.64   -3025.4961 
   59700    488.75357   -146055.24            0   -144033.66   -2975.1524 
   59800    487.40161   -146049.64            0   -144033.65   -3054.4954 
   59900    485.60817   -146042.21            0   -144033.64   -3055.4674 
   60000    486.24748   -146044.85            0   -144033.64   -2917.2264 
   60100    486.19159   -146044.62            0   -144033.64   -2991.5715 
   60200    486.44233   -146045.68            0   -144033.66   -3089.1862 
   60300    487.30466   -146049.23            0   -144033.64   -2933.5194 
   60400    488.09495    -146052.5            0   -144033.65   -3056.9562 
   60500    486.88463    -146047.5            0   -144033.65   -3053.6614 
   60600    485.29996   -146040.94            0   -144033.64   -3136.8812 
   60700    488.61832   -146054.67            0   -144033.65   -3067.1437 
   60800    484.13468   -146036.11            0   -144033.64   -3129.5351 
   60900    487.64853   -146050.66            0   -144033.65   -3126.9679 
   61000    485.81735   -146043.08            0   -144033.64   -2983.3385 
   61100    484.29049   -146036.75            0   -144033.63   -3089.8815 
   61200    487.35797   -146049.45            0   -144033.65   -3122.3984 
   61300    488.50975   -146054.23            0   -144033.66   -3155.8641 
   61400    486.54601   -146046.11            0   -144033.66   -3249.1263 
   61500    490.01319   -146060.46            0   -144033.67   -3100.0603 
   61600    488.51406   -146054.25            0   -144033.67    -3113.066 
   61700    489.36455   -146057.78            0   -144033.67   -3056.0049 
   61800     489.9779   -146060.31            0   -144033.66   -2952.2183 
   61900    484.24898   -146036.59            0   -144033.64   -3192.8284 
   62000    486.23835   -146044.82            0   -144033.64   -2954.1478 
   62100    486.87873   -146047.47            0   -144033.64   -3056.8006 
   62200    487.51962   -146050.13            0   -144033.66   -3050.8398 
   62300    486.08122   -146044.18            0   -144033.65   -3032.0185 
   62400    488.93828   -146056.03            0   -144033.68   -3124.8171 
   62500    488.46465   -146054.06            0   -144033.67    -3169.243 
   62600    487.94166   -146051.89            0   -144033.67   -3056.2432 
   62700    487.21865   -146048.89            0   -144033.66   -3154.6066 
   62800    489.13685   -146056.83            0   -144033.66   -2936.7768 
   62900    483.93649    -146035.3            0   -144033.64   -3149.1427 
   63000    487.77408    -146051.2            0   -144033.67    -2954.758 
   63100    488.75542   -146055.26            0   -144033.67   -2973.4411 
   63200    486.48648   -146045.86            0   -144033.66   -3020.6466 
   63300     484.8243   -146038.98            0   -144033.65    -3152.238 
   63400    488.78432   -146055.37            0   -144033.67   -2896.3818 
   63500    487.68847   -146050.84            0   -144033.67   -3078.8708 
   63600    489.07106   -146056.56            0   -144033.66   -2956.4229 
   63700    486.23768   -146044.84            0   -144033.66   -3212.7521 
   63800    485.71362   -146042.66            0   -144033.66    -3071.026 
   63900    485.04893   -146039.91            0   -144033.65   -3013.9439 
   64000    490.35648   -146061.88            0   -144033.67   -2933.8303 
   64100    484.90223    -146039.3            0   -144033.65   -3143.5314 
   64200    488.13474    -146052.7            0   -144033.68   -3151.8062 
   64300    488.29087   -146053.33            0   -144033.67   -3051.6722 
   64400    488.82694   -146055.56            0   -144033.68      -3092.1 
   64500    486.03767   -146043.99            0   -144033.65   -3074.6491 
   64600     485.2922   -146040.91            0   -144033.65   -3053.0096 
   64700     486.3098   -146045.12            0   -144033.64   -3137.9688 
   64800    487.15996   -146048.65            0   -144033.66   -3052.6799 
   64900    485.51925   -146041.85            0   -144033.64    -3063.403 
   65000    484.77916    -146038.8            0   -144033.65   -3242.0998 
   65100    489.80851    -146059.6            0   -144033.66   -2916.2826 
   65200    487.42304   -146049.75            0   -144033.67   -3241.6251 
   65300    488.11259   -146052.58            0   -144033.65   -2953.3649 
   65400    487.85397   -146051.53            0   -144033.67    -3248.113 
   65500    489.01023   -146056.31            0   -144033.66   -3100.3728 
   65600    487.37449   -146049.54            0   -144033.66   -3106.8162 
   65700    486.46959   -146045.79            0   -144033.66   -3117.4346 
   65800    487.39912   -146049.64            0   -144033.66    -3117.916 
   65900    487.16647   -146048.67            0   -144033.65   -3019.4119 
   66000    487.28295   -146049.16            0   -144033.66   -3142.4429 
   66100    489.08249    -146056.6            0   -144033.66   -3027.3223 
   66200    487.88697   -146051.66            0   -144033.66   -3230.2564 
   66300    486.97451   -146047.88            0   -144033.65   -3125.0529 
   66400    487.66949   -146050.76            0   -144033.66    -3163.788 
   66500    487.76026   -146051.13            0   -144033.66   -3210.5203 
   66600    489.01026    -146056.3            0   -144033.65    -2947.279 
   66700    485.11298   -146040.18            0   -144033.66   -3394.9299 
   66800    491.30899   -146065.81            0   -144033.66   -2995.3985 
   66900    487.95554   -146051.94            0   -144033.66   -3222.8477 
   67000    487.40554   -146049.65            0   -144033.65   -3182.2654 
   67100    486.72741   -146046.85            0   -144033.65   -3221.1849 
   67200    485.98852    -146043.8            0   -144033.65   -3130.8946 
   67300    488.60123   -146054.61            0   -144033.66   -3115.9831 
   67400    487.63868   -146050.63            0   -144033.66   -3125.7997 
   67500    486.40597   -146045.52            0   -144033.65   -3007.2185 
   67600    488.31212   -146053.41            0   -144033.66    -3135.218 
   67700    488.09345   -146052.51            0   -144033.66    -3175.507 
   67800    488.68941   -146054.98            0   -144033.67   -3097.3614 
   67900    484.27267   -146036.69            0   -144033.64   -3165.7142 
   68000    486.04239   -146044.01            0   -144033.65   -3030.8533 
   68100    487.90343   -146051.73            0   -144033.66   -2989.6572 
   68200    484.26874   -146036.68            0   -144033.65   -3211.9871 
   68300    489.59777   -146058.75            0   -144033.67   -3157.4759 
   68400    487.89882    -146051.7            0   -144033.66   -3134.2352 
   68500    486.35597   -146045.32            0   -144033.66   -3157.5049 
   68600    489.08988   -146056.63            0   -144033.66   -2972.7723 
   68700    486.65173   -146046.55            0   -144033.67   -3240.7557 
   68800    487.41742   -146049.72            0   -144033.66   -3111.2764 
   68900     488.4325   -146053.92            0   -144033.67   -3141.9552 
   69000    490.45334   -146062.29            0   -144033.68   -3161.1513 
   69100    488.16802   -146052.83            0   -144033.67   -3205.3631 
   69200    489.95482   -146060.23            0   -144033.68   -3268.5678 
   69300     488.8662   -146055.71            0   -144033.66   -3220.5311 
   69400    486.48348   -146045.85            0   -144033.65   -3308.5881 
   69500     488.5047   -146054.21            0   -144033.66   -3211.3071 
   69600    486.48523   -146045.85            0   -144033.65    -3273.009 
   69700    489.00216   -146056.27            0   -144033.66   -3191.2723 
   69800    486.20822   -146044.71            0   -144033.66   -3301.1454 
   69900    487.49994   -146050.04            0   -144033.65   -3077.8217 
   70000    483.22241   -146032.33            0   -144033.63   -3381.4788 
   70100    487.47302   -146049.93            0   -144033.65   -3210.9725 
   70200    485.94176   -146043.59            0   -144033.64   -3132.5256 
   70300    487.62272   -146050.56            0   -144033.66   -3358.1532 
   70400    488.59525   -146054.58            0   -144033.66   -3187.7537 
   70500    487.92209    -146051.8            0   -144033.66   -3229.5958 
   70600    487.95282   -146051.92            0   -144033.66   -3218.3016 
   70700    487.97674   -146052.03            0   -144033.66    -3194.691 
   70800    486.14197   -146044.43            0   -144033.65   -3222.1991 
   70900    486.31231   -146045.13            0   -144033.65   -3177.8777 
   71000    485.71085   -146042.64            0   -144033.64   -3145.5786 
   71100    488.82768   -146055.54            0   -144033.65   -3117.1871 
   71200    484.54515   -146037.82            0   -144033.65   -3221.5949 
   71300    486.95103   -146047.78            0   -144033.65   -3109.1012 
   71400    490.19163   -146061.18            0   -144033.65   -2876.8992 
   71500    485.09676    -146040.1            0   -144033.65   -3272.9548 
   71600    487.57048   -146050.34            0   -144033.65   -3026.0838 
   71700    487.34342   -146049.41            0   -144033.66    -3191.915 
   71800     488.2083   -146052.99            0   -144033.66   -3172.8995 
   71900    489.28084   -146057.42            0   -144033.66   -3137.6835 
   72000    487.08912   -146048.35            0   -144033.65   -3322.5824 
   72100    489.62273   -146058.83            0   -144033.66   -3102.0774 
   72200    486.60907   -146046.36            0   -144033.65   -3243.7627 
   72300    485.16965    -146040.4            0   -144033.64   -3290.1215 
   72400    490.31222   -146061.69            0   -144033.66   -3076.1202 
   72500    490.06321   -146060.67            0   -144033.67   -3244.6163 
   72600    486.15596   -146044.48            0   -144033.64   -3107.8624 
   72700    485.80448   -146043.03            0   -144033.64   -3227.0822 
   72800    488.93381   -146055.99            0   -144033.66   -3094.8875 
   72900    487.14948   -146048.59            0   -144033.65   -3131.4953 
   73000    487.84094   -146051.47            0   -144033.66   -3129.0285 
   73100    485.00274    -146039.7            0   -144033.63   -3042.8068 
   73200    488.50199   -146054.19            0   -144033.66   -3013.6876 
   73300    488.04335   -146052.29            0   -144033.65   -3114.4643 
   73400    486.08472   -146044.18            0   -144033.64    -3074.386 
   73500    486.35754   -146045.31            0   -144033.64   -3068.8564 
   73600    485.55367   -146041.99            0   -144033.64   -3091.4754 
   73700    487.12139   -146048.46            0   -144033.63   -3045.6378 
   73800    488.21552   -146053.01            0   -144033.66   -3043.0064 
   73900    485.90521   -146043.44            0   -144033.64   -3214.7289 
   74000    487.62975   -146050.58            0   -144033.64   -2959.7073 
   74100    485.56115   -146042.02            0   -144033.65   -3242.2372 
   74200    490.08455   -146060.74            0   -144033.66   -3101.5933 
   74300    485.05954   -146039.94            0   -144033.64   -2990.5389 
   74400    485.92156    -146043.5            0   -144033.64    -3099.938 
   74500    487.63658   -146050.62            0   -144033.66   -3195.8763 
   74600    490.48858   -146062.41            0   -144033.66   -2942.0271 
   74700    485.32916   -146041.08            0   -144033.66   -3306.2188 
   74800    491.21064   -146065.41            0   -144033.67   -2959.1942 
   74900    487.03005   -146048.11            0   -144033.66     -3098.75 
   75000    488.79621   -146055.41            0   -144033.65   -3105.0321 
   75100     484.5368   -146037.77            0   -144033.63   -3109.8995 
   75200    486.97269   -146047.86            0   -144033.65   -3002.1632 
   75300    488.20098   -146052.95            0   -144033.66    -3177.531 
   75400    488.39956   -146053.76            0   -144033.65   -3088.7231 
   75500    486.05632   -146044.08            0   -144033.65   -3258.4032 
   75600    490.15033   -146061.01            0   -144033.66   -3073.3168 
   75700    487.07786    -146048.3            0   -144033.65   -3326.8616 
   75800    487.04069   -146048.13            0   -144033.64   -3072.0925 
   75900    485.18311   -146040.45            0   -144033.64   -3245.5845 
   76000    487.31178   -146049.27            0   -144033.66   -3161.0446 
   76100    488.05259   -146052.32            0   -144033.64   -3046.4539 
   76200    487.23049   -146048.94            0   -144033.65   -3304.9203 
   76300      488.008   -146052.14            0   -144033.64   -3128.0378 
   76400    484.96806   -146039.54            0   -144033.62   -3199.3827 
   76500    485.19692    -146040.5            0   -144033.64   -3226.7471 
   76600    489.46326   -146058.17            0   -144033.65   -3073.8368 
   76700    488.76989    -146055.3            0   -144033.66   -3230.9398 
   76800     490.2889    -146061.6            0   -144033.67   -3313.9175 
   76900    488.09465   -146052.49            0   -144033.64   -3109.9419 
   77000    485.78592   -146042.94            0   -144033.63   -3294.1573 
   77100    487.10308    -146048.4            0   -144033.65   -3272.5099 
   77200     485.4509   -146041.55            0   -144033.63   -3186.0867 
   77300    488.24613   -146053.12            0   -144033.64   -3281.7293 
   77400    488.23151   -146053.06            0   -144033.64   -3089.8869 
   77500    484.98854   -146039.64            0   -144033.64    -3436.241 
   77600    490.93391   -146064.26            0   -144033.66   -3152.2386 
   77700     488.1485   -146052.73            0   -144033.65   -3173.0245 
   77800    487.82175   -146051.38            0   -144033.65   -3308.7355 
   77900    488.46316   -146054.04            0   -144033.66    -3193.919 
   78000    490.63182   -146063.01            0   -144033.66   -3338.8511 
   78100    486.17334   -146044.55            0   -144033.64   -3224.7479 
   78200    486.38034    -146045.4            0   -144033.64   -3306.5941 
   78300    489.48173   -146058.24            0   -144033.65   -3121.0029 
   78400    486.40755   -146045.52            0   -144033.64   -3293.9685 
   78500    488.44182   -146053.94            0   -144033.65   -3259.6518 
   78600     487.7802   -146051.19            0   -144033.64   -2998.0609 
   78700    486.22665   -146044.77            0   -144033.64   -3347.3971 
   78800    489.84828   -146059.76            0   -144033.66   -2978.5877 
   78900    484.81348   -146038.92            0   -144033.64   -3349.1641 
   79000    487.68287   -146050.79            0   -144033.64   -2958.2163 
   79100    486.48438   -146045.84            0   -144033.64   -3065.5897 
   79200    485.96245   -146043.68            0   -144033.64   -3287.7174 
   79300    488.08347   -146052.45            0   -144033.64   -3115.2429 
   79400    490.08332   -146060.73            0   -144033.65   -3094.8774 
   79500    486.70653   -146046.75            0   -144033.64   -3188.1268 
   79600    487.33362   -146049.35            0   -144033.64   -3213.5365 
   79700    487.68659   -146050.81            0   -144033.65   -3102.6905 
   79800    487.68506   -146050.81            0   -144033.65   -3215.7707 
   79900    490.20473   -146061.23            0   -144033.65   -3213.3997 
   80000    486.33885   -146045.23            0   -144033.64   -3334.6594 
   80100    487.67177   -146050.74            0   -144033.64   -3055.1045 
   80200    488.73184   -146055.14            0   -144033.65    -3052.531 
   80300    487.38858   -146049.58            0   -144033.65   -3207.4084 
   80400    488.00366   -146052.12            0   -144033.64   -3053.2292 
   80500    487.51327   -146050.09            0   -144033.64   -3053.5852 
   80600     485.0207   -146039.77            0   -144033.63   -3081.2932 
   80700     488.7782   -146055.33            0   -144033.65   -2988.9246 
   80800    485.96967   -146043.71            0   -144033.64    -3179.002 
   80900    486.64751   -146046.51            0   -144033.64   -3081.3958 
   81000    486.90363   -146047.57            0   -144033.64   -3073.8537 
   81100    483.41771   -146033.14            0   -144033.63    -3312.356 
   81200    487.54327   -146050.21            0   -144033.64   -3039.8748 
   81300    488.09851   -146052.53            0   -144033.66   -3163.7289 
   81400    487.21945   -146048.87            0   -144033.63   -3013.0402 
   81500    486.40231   -146045.51            0   -144033.65   -3317.1111 
   81600    491.35987   -146066.02            0   -144033.66   -3062.2609 
   81700    484.64561   -146038.22            0   -144033.63   -3311.2156 
   81800    486.86431   -146047.39            0   -144033.63   -3055.3053 
   81900     483.4341   -146033.19            0   -144033.62   -3200.3993 
   82000    486.25638   -146044.88            0   -144033.63   -3189.1599 
   82100    486.74808   -146046.92            0   -144033.63   -3059.3367 
   82200     487.5861    -146050.4            0   -144033.65   -3411.8911 
   82300    489.19177   -146057.05            0   -144033.65   -3160.5063 
   82400    487.87749   -146051.61            0   -144033.65   -3270.2866 
   82500    486.45287    -146045.7            0   -144033.63   -3231.5228 
   82600    488.51535   -146054.24            0   -144033.64   -3164.5288 
   82700      486.066    -146044.1            0   -144033.63   -3308.1094 
   82800    486.86152   -146047.39            0   -144033.64   -3244.0294 
   82900    486.98909   -146047.92            0   -144033.64   -3292.4992 
   83000    489.51974    -146058.4            0   -144033.65   -3166.7003 
   83100    487.25498   -146049.03            0   -144033.65   -3241.1642 
   83200    488.79353    -146055.4            0   -144033.65   -3353.2032 
   83300    486.54316   -146046.07            0   -144033.63   -3131.6639 
   83400    489.15995   -146056.91            0   -144033.65   -3177.8159 
   83500    486.58727   -146046.27            0   -144033.65   -3247.6403 
   83600     488.6694   -146054.88            0   -144033.64   -3137.0729 
   83700    484.60683   -146038.06            0   -144033.64   -3329.4967 
   83800    489.04455   -146056.44            0   -144033.65   -3214.6872 
   83900    488.22194   -146053.04            0   -144033.66    -3169.204 
   84000    489.40577   -146057.93            0   -144033.66   -3257.8118 
   84100    487.08132    -146048.3            0   -144033.64   -3130.6596 
   84200    487.41959   -146049.73            0   -144033.67   -3376.3261 
   84300    489.13889   -146056.82            0   -144033.64    -2938.213 
   84400    485.65098   -146042.39            0   -144033.65   -3324.0847 
   84500     488.7503   -146055.22            0   -144033.66   -3099.0361 
   84600    488.13436   -146052.66            0   -144033.65   -3192.3188 
   84700    489.51002   -146058.36            0   -144033.65   -3144.7863 
   84800    489.15557   -146056.91            0   -144033.67   -3245.3244 
   84900    485.76492   -146042.86            0   -144033.64   -3142.0502 
   85000     487.2926   -146049.18            0   -144033.65   -3069.5546 
   85100    489.65316   -146058.96            0   -144033.66   -3077.6387 
   85200    488.11321   -146052.59            0   -144033.66   -3169.5977 
   85300    486.16168   -146044.51            0   -144033.65   -3259.2281 
   85400    488.64265   -146054.77            0   -144033.65   -3013.1454 
   85500    486.40139    -146045.5            0   -144033.64   -3137.7709 
   85600    488.25129   -146053.15            0   -144033.64   -3081.1209 
   85700    487.29529   -146049.21            0   -144033.66   -3179.8124 
   85800     486.8497   -146047.35            0   -144033.64   -3083.9807 
   85900    488.26823   -146053.23            0   -144033.66   -3173.3237 
   86000    489.51726   -146058.41            0   -144033.67   -3198.9481 
   86100    487.42035   -146049.72            0   -144033.65   -3128.3989 
   86200    487.16815   -146048.67            0   -144033.65   -3269.1726 
   86300    490.70485   -146063.32            0   -144033.67   -3053.5737 
   86400    486.33794   -146045.24            0   -144033.66   -3217.4861 
   86500    486.79857   -146047.15            0   -144033.66   -3220.2373 
   86600    488.14815   -146052.73            0   -144033.65    -2968.782 
   86700    487.49992   -146050.05            0   -144033.65   -3108.6506 
   86800    488.30913   -146053.39            0   -144033.65   -3121.3324 
   86900    488.19675   -146052.93            0   -144033.66   -3068.5485 
   87000    488.95029   -146056.05            0   -144033.65   -3101.1458 
   87100    488.16965   -146052.82            0   -144033.65   -3052.2568 
   87200    485.07711   -146040.02            0   -144033.65   -3172.7119 
   87300    489.50429   -146058.34            0   -144033.66   -2983.0791 
   87400    486.20625   -146044.69            0   -144033.64   -3153.0923 
   87500    485.61684   -146042.25            0   -144033.64   -3222.0709 
   87600    488.90163   -146055.84            0   -144033.65   -2932.9923 
   87700    487.92229   -146051.81            0   -144033.67   -3315.6995 
   87800    490.84029   -146063.87            0   -144033.66   -3066.5539 
   87900    489.56915   -146058.63            0   -144033.67   -3207.7054 
   88000    485.31751   -146041.02            0   -144033.65    -3225.899 
   88100    488.37379   -146053.66            0   -144033.65   -2991.9775 
   88200    486.65465   -146046.54            0   -144033.64   -3155.7448 
   88300    486.76172   -146046.99            0   -144033.65   -3156.3147 
   88400    487.46379    -146049.9            0   -144033.65   -3120.4895 
   88500    490.11811   -146060.89            0   -144033.66   -3072.1047 
   88600    485.45786   -146041.59            0   -144033.64   -3299.2661 
   88700    484.52905   -146037.74            0   -144033.64   -3072.1936 
   88800    487.90371   -146051.71            0   -144033.65   -3160.9802 
   88900    487.72816   -146050.99            0   -144033.65   -3128.5615 
   89000    486.96482   -146047.83            0   -144033.65   -3390.0972 
   89100    488.62061   -146054.68            0   -144033.65   -3149.2752 
   89200    487.44241   -146049.81            0   -144033.66   -3327.9969 
   89300    488.47167   -146054.07            0   -144033.65   -3166.2012 
   89400    487.78469   -146051.24            0   -144033.66   -3243.7991 
   89500    488.75945   -146055.26            0   -144033.66   -3153.0283 
   89600    485.25889   -146040.78            0   -144033.66   -3293.2997 
   89700    488.84235    -146055.6            0   -144033.65   -2996.4198 
   89800     485.4393   -146041.51            0   -144033.64   -3263.1723 
   89900    486.22808   -146044.77            0   -144033.64   -3227.1806 
   90000    487.80894   -146051.31            0   -144033.64   -3154.0283 
   90100     486.5123   -146045.94            0   -144033.63   -3207.0181 
   90200    486.07484   -146044.13            0   -144033.63   -3189.0742 
   90300    485.51903   -146041.84            0   -144033.64   -3351.8678 
   90400    488.06399   -146052.37            0   -144033.64    -3142.222 
   90500    486.97311   -146047.87            0   -144033.65   -3329.6322 
   90600    486.88627    -146047.5            0   -144033.64     -3148.84 
   90700    487.02479   -146048.07            0   -144033.64    -3285.371 
   90800    488.85628   -146055.65            0   -144033.65   -3200.7572 
   90900    487.55122   -146050.26            0   -144033.65   -3260.3812 
   91000    485.62508   -146042.26            0   -144033.62   -3036.0056 
   91100    484.46777   -146037.49            0   -144033.63    -3268.147 
   91200    490.00782   -146060.42            0   -144033.65   -3100.8628 
   91300    486.58662   -146046.27            0   -144033.65   -3333.5417 
   91400    491.49116   -146066.57            0   -144033.67   -3018.2837 
   91500    485.04433   -146039.87            0   -144033.64   -3208.8141 
   91600    487.60155   -146050.47            0   -144033.65   -3379.5853 
   91700    488.34603   -146053.53            0   -144033.63   -3049.7293 
   91800    486.32926   -146045.19            0   -144033.64    -3272.717 
   91900    486.60122   -146046.32            0   -144033.64   -3358.1948 
   92000    487.74746   -146051.07            0   -144033.65   -3208.0741 
   92100    488.47359   -146054.07            0   -144033.65    -3208.349 
   92200    486.01855    -146043.9            0   -144033.63   -3155.8573 
   92300    484.57417   -146037.93            0   -144033.63   -3295.9923 
   92400     489.5209   -146058.41            0   -144033.66   -3081.3548 
   92500    486.98594   -146047.92            0   -144033.65   -3226.1929 
   92600    485.03218   -146039.82            0   -144033.63    -3178.037 
   92700     487.7838   -146051.22            0   -144033.65   -3192.5649 
   92800    488.72215   -146055.11            0   -144033.66   -3198.0022 
   92900    486.23423    -146044.8            0   -144033.64   -3245.8687 
   93000    490.59666   -146062.87            0   -144033.66   -3179.6516 
   93100    487.51916   -146050.12            0   -144033.65   -3280.3846 
   93200     490.6431   -146063.07            0   -144033.67   -3320.0329 
   93300    489.00196   -146056.26            0   -144033.66   -3225.1596 
   93400    488.75515   -146055.23            0   -144033.64   -3250.2781 
   93500    485.09165   -146040.07            0   -144033.63   -3296.3445 
   93600    489.17649   -146056.99            0   -144033.66   -3164.1332 
   93700    484.59871   -146038.02            0   -144033.62   -3223.7956 
   93800    487.34376   -146049.38            0   -144033.63   -3056.4843 
   93900    481.52199   -146025.28            0   -144033.61   -3281.9083 
   94000    488.94793   -146056.03            0   -144033.64   -3004.3055 
   94100    488.72423   -146055.12            0   -144033.66   -3279.4543 
   94200    490.42372   -146062.15            0   -144033.67   -3248.0975 
   94300    487.29062   -146049.18            0   -144033.65   -3268.2056 
   94400    489.93262   -146060.11            0   -144033.65   -3048.8053 
   94500    486.86603   -146047.42            0   -144033.65   -3326.3552 
   94600    489.41559   -146057.97            0   -144033.65   -3092.7996 
   94700    486.42986    -146045.6            0   -144033.63   -3118.4129 
   94800    484.71135   -146038.49            0   -144033.63   -3069.9744 
   94900    486.16438   -146044.51            0   -144033.64   -3179.9503 
   95000      487.047   -146048.17            0   -144033.65    -3082.989 
   95100    486.11849   -146044.32            0   -144033.64   -2958.3317 
   95200     490.2034   -146061.25            0   -144033.68   -3323.4628 
   95300    488.82106   -146055.51            0   -144033.65    -3052.811 
   95400    489.75929   -146059.39            0   -144033.65   -3206.6332 
   95500    486.84246   -146047.32            0   -144033.64   -3103.4108 
   95600    486.46015   -146045.73            0   -144033.64   -3118.4481 
   95700    486.44935   -146045.68            0   -144033.63   -3216.0431 
   95800    485.20494   -146040.53            0   -144033.63   -3205.4177 
   95900     488.0415   -146052.28            0   -144033.65   -3244.1609 
   96000    487.39139   -146049.59            0   -144033.64   -3096.4874 
   96100    483.66727   -146034.17            0   -144033.63   -3229.4433 
   96200    487.34365   -146049.39            0   -144033.64   -3102.7705 
   96300    486.94041   -146047.72            0   -144033.64   -3207.9835 
   96400    485.92086    -146043.5            0   -144033.64   -3047.3852 
   96500    485.73052   -146042.71            0   -144033.64   -3105.3776 
   96600    484.02952   -146035.65            0   -144033.61   -3079.1156 
   96700    486.05388   -146044.04            0   -144033.62   -3140.0376 
   96800    486.33585   -146045.22            0   -144033.64   -3234.1323 
   96900    488.92749   -146055.94            0   -144033.64   -3019.4375 
   97000    487.18386   -146048.73            0   -144033.64   -3314.4207 
   97100    488.60335   -146054.61            0   -144033.65   -3163.0923 
   97200    488.85193   -146055.63            0   -144033.65   -3106.8785 
   97300    486.82377   -146047.23            0   -144033.63   -3089.8286 
   97400    487.53503   -146050.18            0   -144033.64   -3194.2184 
   97500     487.6021   -146050.46            0   -144033.65   -3131.5272 
   97600    487.41602   -146049.69            0   -144033.64   -2949.6046 
   97700    485.72403   -146042.69            0   -144033.64   -3363.8214 
   97800    488.10574   -146052.54            0   -144033.64   -3044.9521 
   97900    489.15762   -146056.91            0   -144033.66   -3313.2579 
   98000    486.76519      -146047            0   -144033.64   -3134.5302 
   98100    483.94184    -146035.3            0   -144033.62   -3357.8027 
   98200    489.54438    -146058.5            0   -144033.65   -3023.5932 
   98300    486.20021   -146044.65            0   -144033.63   -3186.1736 
   98400     487.4254   -146049.72            0   -144033.64   -3229.9539 
   98500    486.93295   -146047.67            0   -144033.62   -3067.3243 
   98600     486.9572   -146047.79            0   -144033.64    -3242.853 
   98700    487.62715   -146050.56            0   -144033.64   -3060.6448 
   98800     486.0321   -146043.95            0   -144033.63   -3179.9542 
   98900    485.71577   -146042.65            0   -144033.63   -3155.8193 
   99000    487.61931   -146050.53            0   -144033.64    -3220.056 
   99100    488.83748   -146055.57            0   -144033.65   -3037.1952 
   99200    486.53576   -146046.05            0   -144033.64   -3345.0585 
   99300    485.93934   -146043.57            0   -144033.63    -3061.278 
   99400    488.22329   -146053.03            0   -144033.64   -3106.2425 
   99500    487.38176   -146049.56            0   -144033.65   -3338.3482 
   99600     488.2999   -146053.34            0   -144033.64   -3107.0068 
   99700    488.06679   -146052.38            0   -144033.64    -3138.286 
   99800    488.30312   -146053.36            0   -144033.64   -3268.9985 
   99900    485.68816   -146042.54            0   -144033.64   -3388.5863 
  100000    486.38828   -146045.43            0   -144033.63   -3119.9588 
  100100    487.23971   -146048.94            0   -144033.63   -3074.6277 
  100200    485.08411   -146040.04            0   -144033.63   -3267.0986 
  100300    486.71041   -146046.76            0   -144033.63   -3184.3851 
  100400    485.75708   -146042.83            0   -144033.64   -3256.9957 
  100500    491.13268   -146065.08            0   -144033.66   -3159.6422 
  100600    489.44274   -146058.08            0   -144033.65   -3122.4547 
  100700    486.75313   -146046.94            0   -144033.64   -3194.7442 
  100800    487.34185   -146049.37            0   -144033.63   -3219.2045 
  100900    488.49144   -146054.13            0   -144033.64   -3103.3798 
  101000    486.09115    -146044.2            0   -144033.63   -3283.5039 
  101100    488.88979   -146055.79            0   -144033.65     -3257.14 
  101200    488.80333   -146055.43            0   -144033.64   -3186.8529 
  101300     488.0594   -146052.34            0   -144033.63   -3207.6381 
  101400    487.02018   -146048.04            0   -144033.63   -3235.9082 
  101500    487.33768   -146049.35            0   -144033.63   -3186.0438 
  101600    486.58308   -146046.23            0   -144033.63   -3217.6658 
  101700    488.88988   -146055.78            0   -144033.64   -3065.8059 
  101800    486.67596   -146046.62            0   -144033.64   -3277.5668 
  101900    488.80484   -146055.43            0   -144033.63   -3052.6817 
  102000    484.59621   -146038.02            0   -144033.63   -3356.8639 
  102100    487.91613   -146051.75            0   -144033.64   -3130.7142 
  102200    485.44012    -146041.5            0   -144033.63   -3222.0658 
  102300    488.47129   -146054.05            0   -144033.64   -3118.4465 
  102400    488.26106   -146053.18            0   -144033.64   -3114.0578 
  102500      486.276   -146044.98            0   -144033.65   -3271.3494 
  102600    487.78996   -146051.22            0   -144033.63   -3032.1723 
  102700    488.29608   -146053.34            0   -144033.65   -3325.3419 
  102800    488.25602   -146053.16            0   -144033.64    -3053.809 
  102900    487.12448   -146048.48            0   -144033.64   -3341.9945 
  103000    489.39282   -146057.87            0   -144033.65   -3037.9884 
  103100    485.06181   -146039.93            0   -144033.62   -3147.5217 
  103200    487.66608   -146050.73            0   -144033.64   -3204.6205 
  103300    490.16691   -146061.08            0   -144033.66   -3138.1508 
  103400    487.77865    -146051.2            0   -144033.65    -3293.864 
  103500    488.47213   -146054.07            0   -144033.65   -3248.1141 
  103600    489.80633   -146059.58            0   -144033.64   -3101.9265 
  103700     487.5169   -146050.11            0   -144033.64   -3319.5359 
  103800    486.97965   -146047.87            0   -144033.63   -3200.4244 
  103900    486.67177   -146046.59            0   -144033.62   -3261.0189 
  104000    484.92342   -146039.35            0   -144033.61   -3286.1714 
  104100    488.37163   -146053.63            0   -144033.63   -3185.1975 
  104200    488.72645   -146055.11            0   -144033.64    -3319.671 
  104300    487.93386   -146051.84            0   -144033.65   -3329.8521 
  104400     486.7418   -146046.89            0   -144033.63    -3183.864 
  104500     486.5378   -146046.06            0   -144033.64   -3408.9178 
  104600    488.52189   -146054.26            0   -144033.63   -3119.6416 
  104700    489.39141   -146057.87            0   -144033.65   -3367.3645 
  104800    486.62593   -146046.42            0   -144033.64   -3293.3913 
  104900    488.63943   -146054.73            0   -144033.63   -3118.0586 
  105000    485.13972   -146040.25            0   -144033.62   -3401.0099 
  105100    487.01625   -146048.02            0   -144033.62   -3105.8504 
  105200    490.02083   -146060.48            0   -144033.66   -3498.8291 
  105300    487.09681   -146048.35            0   -144033.62   -3202.6567 
[...]
  975000    484.90282   -146036.84            0   -144031.19   -3064.3961 
  975100    486.34544   -146042.82            0    -144031.2   -3086.2952 
  975200    489.30075   -146055.07            0   -144031.22    -3089.371 
  975300    488.32034   -146051.01            0   -144031.22    -3022.828 
  975400    489.26092   -146054.91            0   -144031.23   -3100.4543 
  975500    484.73013   -146036.14            0    -144031.2    -3074.833 
  975600    488.41877   -146051.42            0   -144031.23   -3048.8599 
  975700    486.92165   -146045.21            0   -144031.21   -3001.1485 
  975800     489.2297   -146054.78            0   -144031.23   -3049.6161 
  975900    487.00752   -146045.58            0   -144031.22   -3072.5779 
  976000    490.68112   -146060.78            0   -144031.23   -3109.5409 
  976100    488.15126   -146050.31            0   -144031.22    -3046.922 
  976200    490.31734   -146059.28            0   -144031.23   -2977.3671 
  976300    488.86301   -146053.26            0   -144031.23   -3012.7109 
  976400    488.55519   -146051.97            0   -144031.21   -2838.3363 
  976500    486.36997   -146042.95            0   -144031.23   -3317.2403 
  976600    488.79393   -146052.96            0   -144031.21   -2834.4024 
  976700    488.95972   -146053.66            0   -144031.23   -3027.8726 
  976800    487.92982    -146049.4            0   -144031.23   -2955.5516 
  976900    488.97933   -146053.75            0   -144031.23   -2903.9492 
  977000    488.91358   -146053.47            0   -144031.23   -3007.0331 
  977100     488.2263   -146050.62            0   -144031.22   -2795.8722 
  977200    486.71142   -146044.35            0   -144031.22   -3026.7665 
  977300    491.36258   -146063.62            0   -144031.25   -2887.4297 
  977400    487.92294   -146049.38            0   -144031.23   -2920.1571 
  977500    485.29089   -146038.47            0   -144031.21   -2825.5246 
  977600     487.2562   -146046.61            0   -144031.22    -3007.561 
  977700    489.41377   -146055.54            0   -144031.22   -2837.0733 
  977800    487.87197   -146049.16            0   -144031.23   -3049.9904 
  977900    488.57566   -146052.07            0   -144031.22   -2853.4117 
  978000    486.44536   -146043.25            0   -144031.22   -3061.2017 
  978100    490.01092   -146058.01            0   -144031.23   -2859.5559 
  978200    489.05487   -146054.05            0   -144031.22     -2956.76 
  978300    489.21866   -146054.73            0   -144031.23   -2979.9482 
  978400    487.62033   -146048.11            0   -144031.22   -2890.6792 
  978500    488.74514   -146052.77            0   -144031.23   -3037.9641 
  978600     487.7203   -146048.51            0   -144031.21   -2845.6243 
  978700    483.70864   -146031.92            0   -144031.21   -3033.4411 
  978800    488.18148   -146050.42            0   -144031.21   -2754.9292 
  978900     490.5126   -146060.09            0   -144031.24   -2981.2626 
  979000     485.1942   -146038.07            0   -144031.21   -3027.1285 
  979100    487.10658   -146045.98            0   -144031.22   -2965.9982 
  979200    488.92217    -146053.5            0   -144031.22   -2885.1804 
  979300      487.361   -146047.03            0   -144031.21   -2978.4294 
  979400     487.6035   -146048.04            0   -144031.22   -2821.7226 
  979500    487.23344   -146046.51            0   -144031.22   -2966.2319 
  979600    487.16072   -146046.21            0   -144031.22   -2957.2056 
  979700    485.76509   -146040.42            0    -144031.2   -2824.0588 
  979800    488.70948   -146052.61            0   -144031.22   -2885.9281 
  979900    487.06134    -146045.8            0   -144031.22   -2970.6697 
  980000    486.68175   -146044.23            0   -144031.22   -3040.4106 
  980100    488.03648   -146049.83            0   -144031.22   -2695.2189 
  980200    486.91943   -146045.21            0   -144031.22   -2958.7217 
  980300    488.82567    -146053.1            0   -144031.22   -2792.4921 
  980400    486.45525   -146043.28            0   -144031.21   -2935.5171 
  980500    490.76681   -146061.14            0   -144031.24   -2867.2127 
  980600    488.22756   -146050.63            0   -144031.22   -2911.4161 
  980700    489.07634   -146054.15            0   -144031.23   -2842.2841 
  980800    486.21004   -146042.28            0   -144031.22   -2867.3405 
  980900    484.09819   -146033.52            0    -144031.2   -2959.8536 
  981000    488.78713   -146052.94            0   -144031.23   -2767.5984 
  981100    488.75247   -146052.79            0   -144031.22   -2818.2161 
  981200    486.94878   -146045.32            0   -144031.21   -2859.5721 
  981300      486.645   -146044.08            0   -144031.22   -2889.6732 
  981400     488.4957   -146051.73            0   -144031.21   -2740.3427 
  981500    488.00662   -146049.72            0   -144031.23   -2886.5544 
  981600    487.89283   -146049.24            0   -144031.22    -2746.275 
  981700    485.90072   -146040.99            0   -144031.21   -2915.9725 
  981800    489.73274   -146056.86            0   -144031.23    -2826.576 
  981900    488.31071   -146050.96            0   -144031.22   -2648.0247 
  982000     484.8015   -146036.43            0   -144031.19    -2906.664 
  982100    485.33467   -146038.63            0   -144031.19   -2756.0416 
  982200    487.85941    -146049.1            0   -144031.22   -2763.4985 
  982300     486.3774   -146042.96            0   -144031.21   -2915.3411 
  982400    486.85787   -146044.95            0   -144031.21   -2879.3474 
  982500    486.92618   -146045.24            0   -144031.22   -2861.9809 
  982600    487.90807    -146049.3            0   -144031.22   -2909.6639 
  982700    488.49293   -146051.72            0   -144031.22   -2899.9389 
  982800    486.74151   -146044.47            0   -144031.21    -2997.509 
  982900    486.99061   -146045.49            0   -144031.21   -2811.3044 
  983000    487.36001   -146047.03            0   -144031.21   -3028.6726 
  983100     489.7602   -146056.98            0   -144031.23    -2958.023 
  983200    488.38192   -146051.27            0   -144031.23   -2910.2666 
  983300    489.88539   -146057.49            0   -144031.23   -2906.4963 
  983400    487.41856   -146047.27            0   -144031.21   -3044.6604 
  983500    487.44057   -146047.37            0   -144031.22   -2916.6981 
  983600    489.22366   -146054.76            0   -144031.24   -2890.6585 
  983700    485.94753   -146041.18            0    -144031.2   -2987.8972 
  983800    487.21664   -146046.44            0   -144031.21   -2750.6982 
  983900    488.05646   -146049.92            0   -144031.22   -3006.3662 
  984000    487.51649   -146047.68            0   -144031.22   -2902.2116 
  984100    487.30183   -146046.79            0   -144031.21   -2952.8688 
  984200    488.07797   -146050.01            0   -144031.23   -3135.5489 
  984300    489.36995   -146055.35            0   -144031.22   -2852.3683 
  984400     486.3074   -146042.67            0    -144031.2   -2990.7048 
  984500    490.31885   -146059.28            0   -144031.23   -2909.9655 
  984600    489.13394   -146054.37            0   -144031.22   -2926.5806 
  984700    486.83399   -146044.85            0   -144031.21   -3100.4745 
  984800    488.86037   -146053.24            0   -144031.22   -2825.5228 
  984900    485.09379   -146037.65            0   -144031.21   -3196.6555 
  985000     491.9063   -146065.86            0   -144031.24   -2791.8408 
  985100    484.78506   -146036.38            0   -144031.22   -3080.9004 
  985200    490.24892   -146058.99            0   -144031.23   -2752.7628 
  985300     489.1336   -146054.38            0   -144031.23   -2875.2128 
  985400    490.04023   -146058.14            0   -144031.24   -3025.7321 
  985500    489.12735   -146054.37            0   -144031.24   -2885.9364 
  985600    487.68991   -146048.41            0   -144031.23   -3057.3358 
  985700     489.1581   -146054.47            0   -144031.21   -2919.1535 
  985800    487.73384   -146048.58            0   -144031.21   -3015.6712 
  985900    487.37458   -146047.09            0   -144031.21   -3086.6694 
  986000    485.96378   -146041.26            0   -144031.22   -3053.8946 
  986100    489.19683   -146054.62            0   -144031.21   -2764.6927 
  986200    486.92511   -146045.24            0   -144031.22   -3065.1937 
  986300     489.1172   -146054.31            0   -144031.23   -2828.1952 
  986400    488.45752   -146051.58            0   -144031.22    -2987.778 
  986500    488.82082   -146053.08            0   -144031.22   -2878.3423 
  986600    487.15467   -146046.18            0   -144031.21   -2940.8675 
  986700    485.62111   -146039.84            0   -144031.22   -3056.4131 
  986800     488.1341   -146050.24            0   -144031.22   -2835.3589 
  986900    486.85853   -146044.94            0    -144031.2   -2962.2576 
  987000    486.13842   -146041.97            0   -144031.21   -2940.7452 
  987100    488.68161   -146052.51            0   -144031.23   -3013.4181 
  987200    486.43128   -146043.18            0    -144031.2   -2890.8626 
  987300    486.71142   -146044.35            0   -144031.21    -3003.413 
  987400    487.84006   -146049.03            0   -144031.23   -2983.7271 
  987500    486.60929   -146043.92            0   -144031.21   -3019.8785 
  987600    486.55601   -146043.69            0    -144031.2    -2937.646 
  987700    488.48062   -146051.68            0   -144031.22    -3042.036 
  987800    489.25466   -146054.88            0   -144031.22   -3065.2797 
  987900    488.61791   -146052.24            0   -144031.23   -3072.7172 
  988000    490.92397   -146061.78            0   -144031.23   -2999.5724 
  988100    487.33675   -146046.94            0   -144031.22   -2986.7572 
  988200    485.54269    -146039.5            0    -144031.2   -2977.4891 
  988300    489.35499   -146055.29            0   -144031.22   -2815.2006 
  988400    485.91454   -146041.04            0    -144031.2   -3007.8268 
  988500    486.98371   -146045.47            0   -144031.22   -2954.1801 
  988600    488.19517   -146050.48            0   -144031.21   -2847.1532 
  988700    488.76648   -146052.85            0   -144031.21   -2851.9158 
  988800    485.43565   -146039.07            0   -144031.22   -3183.9822 
  988900    488.84488   -146053.17            0   -144031.21   -2762.9139 
  989000    487.05664   -146045.77            0   -144031.21   -2832.3482 
  989100    487.03413   -146045.67            0    -144031.2   -2922.7515 
  989200    486.45787   -146043.31            0   -144031.22   -3143.4793 
  989300     490.7836   -146061.21            0   -144031.23   -2860.8905 
  989400    487.65279   -146048.23            0   -144031.21   -3025.2685 
  989500    487.54848    -146047.8            0    -144031.2   -2940.1987 
  989600    484.62438    -146035.7            0    -144031.2   -3111.9946 
  989700    487.26442   -146046.63            0   -144031.21   -3071.3834 
  989800    488.20825   -146050.52            0    -144031.2     -2993.12 
  989900    488.21841   -146050.57            0   -144031.21   -3092.0335 
  990000       487.26   -146046.62            0   -144031.21   -3159.7616 
  990100    490.21482   -146058.85            0   -144031.23   -3192.6167 
  990200    487.94561   -146049.46            0   -144031.22   -3057.8263 
  990300    488.38323   -146051.26            0   -144031.21   -3052.3322 
  990400     486.4051   -146043.07            0   -144031.21   -3054.0114 
  990500    486.55136   -146043.68            0   -144031.21   -3062.1285 
  990600    488.21181   -146050.55            0   -144031.21    -3088.363 
  990700    487.09118   -146045.91            0    -144031.2    -2939.399 
  990800    486.70183   -146044.31            0   -144031.21   -3198.4125 
  990900    487.62493   -146048.11            0    -144031.2   -2935.9639 
  991000    488.14905   -146050.29            0   -144031.21   -3083.1684 
  991100    488.57214   -146052.05            0   -144031.22   -2986.1942 
  991200    487.46923   -146047.49            0   -144031.22   -3137.1929 
  991300    487.21596   -146046.43            0   -144031.21   -3053.2754 
  991400    487.66702   -146048.28            0   -144031.19   -2825.0363 
  991500    486.54823   -146043.66            0    -144031.2   -3140.8979 
  991600    488.96797   -146053.68            0   -144031.21   -2970.1418 
  991700    489.70797   -146056.75            0   -144031.22   -3070.5372 
  991800     489.6564   -146056.53            0   -144031.22   -3055.6583 
  991900    486.22826   -146042.34            0    -144031.2   -3071.5405 
  992000    485.14511   -146037.85            0    -144031.2   -2872.8761 
  992100     486.4356    -146043.2            0    -144031.2   -3026.4877 
  992200    487.09554   -146045.93            0   -144031.21   -3113.1057 
  992300    487.10995   -146045.98            0    -144031.2   -3033.2178 
  992400    487.47014   -146047.48            0    -144031.2   -2991.5385 
  992500    485.00193   -146037.26            0   -144031.19   -3107.1698 
  992600    488.45321   -146051.55            0   -144031.21   -3086.2424 
  992700    488.19075   -146050.47            0   -144031.22   -3018.7326 
  992800    487.57343    -146047.9            0    -144031.2   -3006.2197 
  992900    486.92292   -146045.22            0   -144031.21   -3094.2711 
  993000    488.19913    -146050.5            0   -144031.21     -3041.02 
  993100    487.93694   -146049.41            0    -144031.2   -2884.3822 
  993200    484.89165    -146036.8            0   -144031.19   -3254.0957 
  993300    486.57582   -146043.76            0   -144031.19    -2979.628 
  993400    487.51756   -146047.67            0    -144031.2   -3030.3063 
  993500    484.91664    -146036.9            0   -144031.19   -3099.5482 
  993600    488.29951   -146050.91            0   -144031.21   -3007.3237 
  993700    484.93768   -146036.99            0   -144031.19   -3141.6714 
  993800    489.80531   -146057.14            0   -144031.21   -2977.1648 
  993900    487.60271   -146048.03            0   -144031.21   -3233.8075 
  994000    487.85129   -146049.06            0   -144031.21    -3119.893 
  994100    489.18027   -146054.56            0   -144031.22   -3033.9037 
  994200    489.68558   -146056.64            0   -144031.21     -2967.18 
  994300     488.0802   -146050.01            0   -144031.22   -3145.3479 
  994400    490.28155   -146059.11            0   -144031.21   -3097.2809 
  994500    486.29159    -146042.6            0    -144031.2   -3125.3761 
  994600    487.16563    -146046.2            0   -144031.19   -2971.4613 
  994700    485.89122   -146040.95            0   -144031.21   -3191.1266 
  994800    489.37775   -146055.37            0   -144031.21   -2975.3158 
  994900     487.0669   -146045.81            0   -144031.21   -3180.9364 
  995000    488.80699   -146053.01            0   -144031.21    -3073.393 
  995100    488.03511   -146049.81            0    -144031.2    -3071.468 
  995200    487.26001   -146046.61            0   -144031.21   -3128.0025 
  995300    489.27193   -146054.94            0   -144031.22   -3208.1337 
  995400    486.14264   -146041.97            0   -144031.19   -3181.1886 
  995500    487.55006    -146047.8            0    -144031.2   -3019.4768 
  995600    488.43828   -146051.49            0   -144031.21   -3183.2528 
  995700    490.85984   -146061.51            0   -144031.22   -3099.3016 
  995800    487.94008   -146049.43            0   -144031.21   -3178.6708 
  995900    487.71507   -146048.48            0    -144031.2   -3138.8415 
  996000    488.67406   -146052.46            0   -144031.21   -3262.7488 
  996100    489.47551   -146055.76            0   -144031.19    -3006.528 
  996200    485.42001      -146039            0    -144031.2   -3310.6227 
  996300    487.90915   -146049.28            0    -144031.2     -3075.72 
  996400    484.27585   -146034.25            0   -144031.19   -3217.5492 
  996500    489.47636   -146055.79            0   -144031.22   -3175.8536 
  996600    485.67134   -146040.02            0   -144031.19   -2989.3988 
  996700    487.23393   -146046.51            0   -144031.22    -3250.384 
  996800    487.43902   -146047.35            0    -144031.2   -2980.8187 
  996900     487.6205    -146048.1            0   -144031.21   -3091.3415 
  997000    486.62505   -146043.98            0    -144031.2   -3072.3531 
  997100     489.4404   -146055.64            0   -144031.22   -3065.2152 
  997200     487.8868    -146049.2            0   -144031.21   -3027.8496 
  997300    487.91715   -146049.33            0   -144031.21   -2946.6155 
  997400    486.16907   -146042.09            0    -144031.2   -3084.1825 
  997500    487.91555   -146049.33            0   -144031.21   -3078.7876 
  997600    488.17383    -146050.4            0   -144031.22   -3137.2992 
  997700     488.3101   -146050.96            0   -144031.21   -2957.7192 
  997800    485.79442   -146040.54            0    -144031.2   -3101.8443 
  997900    488.49428   -146051.71            0   -144031.21   -2987.1213 
  998000    488.39707   -146051.32            0   -144031.21   -3016.7388 
  998100    487.59877   -146048.02            0   -144031.22   -3124.6845 
  998200     488.7284   -146052.69            0   -144031.21   -3000.3358 
  998300    488.53236   -146051.89            0   -144031.22   -3189.9587 
  998400    489.73019   -146056.83            0   -144031.22    -3114.858 
  998500    486.46609   -146043.32            0    -144031.2   -3105.3424 
  998600    488.05792    -146049.9            0    -144031.2   -2923.7197 
  998700    484.67925   -146035.93            0    -144031.2   -3151.3461 
  998800    486.22633   -146042.33            0    -144031.2   -3072.5375 
  998900    489.41098   -146055.52            0   -144031.22   -3092.1976 
  999000    486.05823   -146041.64            0   -144031.21   -3157.3868 
  999100    486.77532    -146044.6            0    -144031.2   -3153.2293 
  999200     486.5096   -146043.49            0   -144031.19   -2989.1572 
  999300    484.59817   -146035.58            0   -144031.19   -3092.7297 
  999400    486.81911   -146044.79            0   -144031.21   -3065.5146 
  999500     485.0942   -146037.64            0   -144031.19   -2982.6903 
  999600    488.47152   -146051.63            0   -144031.22   -2952.9856 
  999700    487.95301   -146049.49            0   -144031.22   -3155.1027 
  999800    487.96749   -146049.55            0   -144031.22   -3023.4723 
  999900    487.31389   -146046.83            0   -144031.21   -3139.2694 
 1000000    485.40256   -146038.92            0    -144031.2   -3096.5672 
Loop time of 2059.92 on 1 procs for 1000000 steps with 32000 atoms

Performance: 41.943 ns/day, 0.572 hours/ns, 485.457 timesteps/s
88.9% CPU use with 1 MPI tasks x no OpenMP threads

MPI task timing breakdown:
Section |  min time  |  avg time  |  max time  |%varavg| %total
---------------------------------------------------------------
Pair    | 1175.1     | 1175.1     | 1175.1     |   0.0 | 57.05
Neigh   | 3.4553     | 3.4553     | 3.4553     |   0.0 |  0.17
Comm    | 236.94     | 236.94     | 236.94     |   0.0 | 11.50
Output  | 1.8862     | 1.8862     | 1.8862     |   0.0 |  0.09
Modify  | 416.82     | 416.82     | 416.82     |   0.0 | 20.23
Other   |            | 225.7      |            |       | 10.96

Nlocal:    32000 ave 32000 max 32000 min
Histogram: 1 0 0 0 0 0 0 0 0 0
Nghost:    20821 ave 20821 max 20821 min
Histogram: 1 0 0 0 0 0 0 0 0 0
Neighs:    0 ave 0 max 0 min
Histogram: 1 0 0 0 0 0 0 0 0 0

Total # of neighbors = 0
Ave neighs/atom = 0
Neighbor list builds = 31299
Dangerous builds = 0

Please see the log.cite file for references relevant to this simulation

Total wall time: 0:34:20
