LAMMPS (10 Mar 2016)
package gpu 1
package gpu 1
# bulk Si via Tersoff

#include pak.kokkos

units		metal
atom_style	atomic

lattice		diamond 5.431
Lattice spacing in x,y,z = 5.431 5.431 5.431
region		box block 0 20 0 20 0 10
create_box	1 box
Created orthogonal box = (0 0 0) to (108.62 108.62 54.31)
  1 by 1 by 1 MPI processor grid
create_atoms	1 box
Created 32000 atoms

pair_style	tersoff
pair_coeff	* * Si.tersoff Si
mass            1 28.06

velocity	all create 1000.0 376847 loop geom

neighbor	1.0 bin
neigh_modify    delay 5 every 1

fix		1 all nve

timestep	0.001

thermo          100
run		1000000
Neighbor list info ...
  0 neighbor list requests
  update every 1 steps, delay 5 steps, check yes
  max neighbors/atom: 2000, page size: 100000
  master list distance cutoff = 4.2
  ghost atom cutoff = 7.4
  binsize = 2.1 -> bins = 52 52 26
Memory usage per processor = 9.96267 Mbytes
Step Temp E_pair E_mol TotEng Press 
       0         1000   -148173.19            0   -144036.99    7019.4434 
     100    430.57813   -145815.61            0   -144034.65   -14550.734 
     200      543.501   -146282.54            0   -144034.51   -2111.5779 
     300    494.98013   -146081.58            0   -144034.24   -3957.8059 
     400    497.19992    -146090.7            0   -144034.18   -3083.4992 
     500    477.91609   -146010.87            0   -144034.11   -3175.9467 
     600    468.79521   -145973.16            0   -144034.13   -4943.1478 
     700     497.7616   -146093.01            0   -144034.17   -2378.2847 
     800    489.26324   -146057.87            0   -144034.18   -3813.5563 
     900     489.0544      -146057            0   -144034.17   -3244.6261 
    1000    483.16088   -146032.63            0   -144034.18   -3974.0969 
    1100    489.06704   -146057.05            0   -144034.17   -3233.5411 
    1200    487.15391   -146049.15            0   -144034.18   -3356.6846 
    1300    490.20995   -146061.79            0   -144034.19   -3634.0824 
    1400    487.19702   -146049.33            0   -144034.19   -3698.2674 
    1500    489.97716   -146060.84            0    -144034.2   -3455.2507 
    1600    488.02115   -146052.73            0   -144034.18   -3335.4511 
    1700    487.05984   -146048.76            0   -144034.19   -3553.2842 
    1800     487.8753   -146052.12            0   -144034.17   -3299.2701 
    1900    486.02989   -146044.48            0   -144034.17   -3403.0451 
    2000    486.69891   -146047.27            0   -144034.18   -3536.2282 
    2100    489.35661   -146058.24            0   -144034.17   -3076.6528 
    2200    484.30585   -146037.36            0   -144034.17   -3570.2059 
    2300    488.85586   -146056.17            0   -144034.17   -3073.9885 
    2400    485.30488   -146041.49            0   -144034.18    -3469.274 
    2500    488.50345   -146054.73            0   -144034.18   -3276.2312 
    2600    490.19687   -146061.74            0   -144034.19   -3113.2766 
    2700    482.64121   -146030.47            0   -144034.17   -3611.4725 
    2800    488.75341   -146055.76            0   -144034.18   -3134.0511 
    2900    485.96652   -146044.23            0   -144034.17   -3394.2211 
    3000    491.12228   -146065.58            0    -144034.2   -3580.3742 
    3100      489.521   -146058.95            0    -144034.2   -3301.5774 
    3200    486.52458   -146046.55            0   -144034.18   -3325.7713 
    3300    489.35117   -146058.24            0   -144034.18     -3262.69 
    3400     484.8997   -146039.82            0   -144034.18   -3540.9199 
    3500    489.71397   -146059.73            0   -144034.18   -3031.2783 
    3600    486.88893   -146048.05            0   -144034.19   -3426.0542 
    3700    488.07523   -146052.96            0   -144034.18   -3390.3751 
    3800    487.99919   -146052.64            0   -144034.18   -2971.6364 
    3900    486.35355   -146045.85            0   -144034.19   -3507.4556 
    4000    488.37508    -146054.2            0   -144034.19   -3150.1738 
    4100    488.24239   -146053.66            0    -144034.2   -3308.8332 
    4200    484.67054   -146038.88            0   -144034.19   -3537.8365 
    4300    490.03505   -146061.07            0   -144034.19     -3135.36 
    4400    488.25618   -146053.73            0   -144034.21   -3330.6231 
    4500    489.47029   -146058.73            0   -144034.19   -3088.5714 
    4600    483.11074   -146032.41            0   -144034.17    -3372.441 
    4700    488.77001   -146055.83            0   -144034.18    -3026.754 
    4800    484.95981   -146040.07            0   -144034.18   -3411.9674 
    4900    487.69538   -146051.39            0   -144034.19   -3179.2871 
    5000    490.57752   -146063.32            0   -144034.19   -3042.5303 
    5100    483.22748   -146032.89            0   -144034.16   -3373.9068 
    5200    492.64592   -146071.89            0   -144034.21   -2868.1228 
    5300    483.70652    -146034.9            0   -144034.19   -3656.5088 
    5400    489.80849   -146060.14            0   -144034.19    -3031.446 
    5500    486.22986   -146045.33            0   -144034.19   -3274.8061 
    5600    486.02299   -146044.47            0   -144034.19    -3302.555 
    5700    488.83105   -146056.09            0   -144034.19   -3182.2951 
    5800    488.92027   -146056.48            0   -144034.21   -3333.3503 
    5900      491.136   -146065.65            0   -144034.21   -3318.7202 
    6000     490.9343   -146064.81            0   -144034.21   -3195.8688 
    6100    485.84753   -146043.75            0   -144034.19   -3308.7869 
    6200    486.31632   -146045.69            0   -144034.19   -3207.0111 
    6300     485.5224    -146042.4            0   -144034.18   -2965.3179 
    6400    485.61503   -146042.78            0   -144034.18   -3128.9408 
    6500    486.57999   -146046.78            0   -144034.19    -3028.187 
    6600    488.37753   -146054.24            0   -144034.21     -3215.61 
    6700    485.17797   -146040.98            0   -144034.19    -3273.513 
    6800    489.32171   -146058.12            0   -144034.19   -2956.2708 
    6900    486.35606   -146045.85            0   -144034.19   -3099.7305 
    7000    487.30875    -146049.8            0   -144034.19   -3019.8582 
    7100    488.64805   -146055.35            0    -144034.2    -3061.582 
    7200    485.88042   -146043.87            0   -144034.18   -2954.7496 
    7300    484.56374   -146038.45            0    -144034.2   -3283.0582 
    7400    490.43045   -146062.73            0   -144034.22   -3199.4423 
    7500    486.48561    -146046.4            0    -144034.2   -3217.1238 
    7600    487.01418   -146048.57            0   -144034.18   -3036.6907 
    7700    486.33852   -146045.77            0   -144034.18   -3042.9604 
    7800    484.91637   -146039.89            0   -144034.18   -3085.2022 
    7900    486.69384   -146047.26            0    -144034.2   -3181.0194 
    8000    489.50688    -146058.9            0   -144034.21   -3074.2927 
    8100      488.291   -146053.86            0   -144034.19   -2920.8223 
    8200    485.39406   -146041.88            0   -144034.19   -3273.0642 
    8300    487.37102   -146050.05            0   -144034.19   -3003.2536 
    8400    487.04708   -146048.72            0    -144034.2   -2874.0526 
    8500    488.67109   -146055.44            0    -144034.2   -2982.5946 
    8600    486.28057   -146045.54            0   -144034.19   -3045.8779 
    8700    483.33991   -146033.37            0   -144034.18   -3258.3202 
    8800    488.75549   -146055.79            0    -144034.2   -2877.1871 
    8900    486.90243   -146048.13            0   -144034.21   -3327.4993 
    9000     491.5486   -146067.35            0   -144034.21   -2936.0086 
    9100    487.11724   -146049.03            0   -144034.22   -3275.0966 
    9200    490.89474   -146064.65            0   -144034.22   -2941.4243 
    9300    484.85956   -146039.68            0    -144034.2   -3171.0494 
    9400    489.22804   -146057.75            0   -144034.21   -3114.5909 
    9500    489.63535   -146059.44            0   -144034.21   -2926.0078 
    9600    485.19233   -146041.05            0    -144034.2   -3198.4007 
    9700    488.51005   -146054.77            0    -144034.2   -2932.6544 
    9800     489.9149   -146060.61            0   -144034.22   -3049.5286 
    9900    487.84964   -146052.04            0    -144034.2   -3064.6271 
   10000    483.91584   -146035.76            0   -144034.19   -3082.7453 
   10100    487.38334   -146050.11            0    -144034.2   -2964.1144 
   10200    485.99339   -146044.35            0   -144034.18   -3112.5044 
   10300    485.61636   -146042.79            0   -144034.18   -2988.4847 
   10400     486.7376   -146047.43            0   -144034.19    -2955.772 
   10500    485.49189   -146042.29            0    -144034.2   -3067.0176 
   10600    489.94323   -146060.71            0   -144034.21   -2904.1905 
   10700    487.08097   -146048.87            0   -144034.21     -3054.64 
   10800    486.28948   -146045.58            0   -144034.19   -3091.3787 
   10900    487.93815   -146052.41            0    -144034.2   -3131.2646 
   11000    487.15253   -146049.15            0    -144034.2   -3095.2502 
   11100    488.31255   -146053.96            0    -144034.2   -3002.3633 
   11200    487.17777   -146049.26            0    -144034.2   -3113.3385 
   11300    488.17589    -146053.4            0   -144034.21   -3033.8193 
   11400    487.08546   -146048.88            0    -144034.2   -3049.8053 
   11500    488.19737   -146053.49            0   -144034.21   -3002.4587 
   11600    486.27455   -146045.53            0    -144034.2   -3216.8156 
   11700    482.51377   -146029.94            0   -144034.17   -3128.4028 
   11800    487.71592   -146051.47            0   -144034.18   -2895.4264 
   11900    484.45579   -146037.98            0   -144034.17   -3116.3955 
   12000    487.99922   -146052.66            0    -144034.2   -3169.7928 
   12100     487.9003   -146052.24            0   -144034.19   -2986.5793 
   12200    488.10095   -146053.09            0   -144034.21   -3237.1401 
   12300    483.85206   -146035.49            0   -144034.18   -3243.1564 
   12400    486.64399   -146047.04            0   -144034.19   -2995.7099 
   12500    484.39716   -146037.74            0   -144034.18    -3112.067 
   12600    488.50258   -146054.76            0   -144034.22   -3186.3667 
   12700    489.24558   -146057.82            0    -144034.2   -3034.2171 
   12800     491.0288   -146065.21            0   -144034.22    -3028.008 
   12900    486.10305   -146044.83            0   -144034.21   -3101.6532 
   13000    485.48678   -146042.26            0   -144034.19   -3102.7093 
   13100    485.26524   -146041.33            0   -144034.18    -2853.968 
   13200      486.069   -146044.67            0   -144034.19   -2988.8682 
   13300    486.39561   -146046.03            0    -144034.2    -3086.706 
   13400     487.2236   -146049.45            0    -144034.2   -3074.3679 
   13500    489.59114   -146059.26            0   -144034.21   -2956.3835 
   13600    487.59915   -146051.02            0   -144034.22    -3259.342 
   13700    490.18788   -146061.72            0   -144034.21   -2921.0809 
   13800    486.90049   -146048.13            0   -144034.21   -3147.9618 
   13900    487.34128   -146049.94            0    -144034.2   -3003.9338 
   14000    488.23468   -146053.63            0    -144034.2   -3042.0143 
   14100    487.87966   -146052.18            0   -144034.21   -3279.5497 
   14200    488.96527   -146056.66            0    -144034.2   -2974.9011 
   14300    489.14793   -146057.43            0   -144034.22   -3181.7091 
   14400    486.25538   -146045.45            0   -144034.21   -3069.6313 
   14500    488.26205   -146053.77            0   -144034.22   -3146.8968 
   14600    487.54331   -146050.78            0    -144034.2   -3015.4928 
   14700    488.45257   -146054.55            0   -144034.21   -3117.1274 
   14800     486.8032   -146047.71            0    -144034.2   -3156.9544 
   14900    487.22494   -146049.46            0    -144034.2    -3129.307 
   15000    486.89629    -146048.1            0    -144034.2   -3129.7902 
   15100    487.87724   -146052.16            0   -144034.21   -3324.6806 
   15200    488.49695   -146054.72            0    -144034.2   -2942.6459 
   15300    488.53123   -146054.87            0   -144034.21   -3090.9085 
   15400    488.73983   -146055.73            0   -144034.21   -2996.9728 
   15500    486.59406   -146046.85            0   -144034.21   -3271.3481 
   15600     487.2794   -146049.69            0    -144034.2   -3128.9097 
   15700    487.50084   -146050.59            0    -144034.2   -3068.4185 
   15800    487.12599   -146049.04            0   -144034.19   -2888.1787 
   15900    485.76364   -146043.42            0   -144034.21   -3364.4461 
   16000     490.4065   -146062.63            0   -144034.21   -3000.4248 
   16100    487.32321   -146049.87            0   -144034.21   -3200.8687 
   16200    487.03874   -146048.68            0   -144034.19   -3204.0514 
   16300    486.97912   -146048.43            0   -144034.19   -3044.3887 
   16400    486.20276   -146045.21            0   -144034.18   -3073.9841 
   16500    485.49624    -146042.3            0   -144034.19   -3147.5666 
   16600    486.05992   -146044.64            0    -144034.2   -3205.1389 
   16700    485.30143   -146041.49            0   -144034.19   -3103.3552 
   16800    491.14022   -146065.66            0   -144034.21   -2872.9249 
   16900    486.07065   -146044.68            0    -144034.2   -3243.2953 
   17000    485.35773   -146041.72            0   -144034.19    -3038.456 
   17100    487.04807   -146048.72            0    -144034.2   -3152.7168 
   17200     486.8977   -146048.09            0   -144034.18    -2920.805 
   17300     488.1296   -146053.19            0   -144034.19   -3082.6887 
   17400    485.96044   -146044.23            0    -144034.2   -3250.5225 
   17500    489.83471   -146060.26            0   -144034.21   -3045.2486 
   17600    488.69785   -146055.56            0   -144034.21   -3247.4831 
   17700     487.5641   -146050.86            0    -144034.2   -3029.0227 
   17800    485.62107   -146042.81            0   -144034.18   -3070.0769 
   17900    487.76117   -146051.68            0   -144034.21   -3140.9571 
   18000    488.87822    -146056.3            0    -144034.2   -3036.5448 
   18100    484.55844   -146038.41            0   -144034.18   -2932.8408 
   18200    487.80495   -146051.86            0    -144034.2   -3120.6134 
   18300    487.72827   -146051.54            0    -144034.2    -3069.548 
   18400    489.07054    -146057.1            0   -144034.21   -3149.9405 
   18500    486.79744   -146047.69            0    -144034.2   -3046.0794 
   18600    489.25194   -146057.85            0   -144034.21    -3032.952 
   18700    485.38299   -146041.84            0    -144034.2   -3279.6091 
   18800    489.13211   -146057.35            0   -144034.21   -3036.3009 
   18900    487.99326   -146052.64            0   -144034.21    -3103.597 
   19000     490.1738   -146061.66            0    -144034.2   -2966.0013 
   19100    489.38023   -146058.38            0   -144034.21   -3126.9011 
   19200    485.56804   -146042.61            0   -144034.21   -3093.8547 
   19300    485.91368   -146044.02            0   -144034.19   -3037.4956 
   19400    487.23387    -146049.5            0   -144034.21   -3265.9176 
   19500    488.56864   -146055.02            0   -144034.21   -2971.0175 
   19600    488.77859    -146055.9            0   -144034.22   -3253.7874 
   19700      491.071   -146065.38            0   -144034.22   -3011.8394 
   19800     486.8691   -146047.99            0   -144034.21   -3061.3689 
   19900    486.53121   -146046.58            0   -144034.19   -3026.4777 
   20000    486.02954   -146044.51            0   -144034.19   -3064.4101 
   20100    489.46963   -146058.75            0   -144034.21   -3219.5555 
   20200    487.03748   -146048.68            0    -144034.2   -3031.5976 
   20300    487.89267   -146052.22            0    -144034.2   -3118.0282 
   20400    488.66943   -146055.44            0   -144034.21   -3014.5816 
   20500    486.47884   -146046.37            0    -144034.2   -3140.9342 
   20600    489.16089   -146057.46            0    -144034.2   -3018.4286 
   20700    486.51959   -146046.54            0    -144034.2   -3032.0938 
   20800    485.09386   -146040.64            0   -144034.19   -3206.1357 
   20900    485.00709   -146040.26            0   -144034.18   -2955.1304 
   21000    486.77355   -146047.59            0    -144034.2   -3049.5396 
   21100    487.23805    -146049.5            0   -144034.19   -2916.8275 
   21200    487.79311   -146051.81            0    -144034.2   -2976.2752 
   21300    486.02627    -146044.5            0    -144034.2   -3013.0688 
   21400     484.7631   -146039.26            0   -144034.19   -3149.8136 
   21500    490.02005   -146061.03            0   -144034.21   -3028.1428 
   21600    485.75598   -146043.36            0   -144034.18   -2935.8483 
   21700     484.1416   -146036.69            0   -144034.18   -3169.1852 
   21800    487.60386   -146051.02            0    -144034.2    -2944.089 
   21900    486.04797   -146044.58            0   -144034.19   -3093.9546 
   22000    484.86366   -146039.68            0   -144034.19   -3132.7931 
   22100    488.68807   -146055.52            0   -144034.21    -3050.798 
   22200    485.15955    -146040.9            0   -144034.19   -3170.7202 
   22300    486.22434    -146045.3            0   -144034.18   -2905.6448 
   22400    487.25082   -146049.58            0   -144034.21   -3171.6124 
   22500    490.39063   -146062.56            0   -144034.21   -3126.7298 
   22600    487.02615   -146048.62            0   -144034.19   -2972.4531 
   22700    487.91006    -146052.3            0   -144034.21   -3183.1287 
   22800    486.07436   -146044.69            0    -144034.2   -3097.7968 
   22900    487.45736   -146050.41            0    -144034.2   -2965.4998 
   23000    486.21342   -146045.27            0    -144034.2   -3217.4714 
   23100     489.8009   -146060.13            0   -144034.21   -3111.9923 
   23200    490.16125   -146061.62            0   -144034.21   -3080.8016 
   23300    488.92831   -146056.51            0   -144034.21   -3111.2077 
   23400    487.57836   -146050.93            0   -144034.21   -3283.7229 
   23500    486.90132   -146048.12            0    -144034.2   -3055.9381 
   23600     489.4702   -146058.76            0   -144034.22   -3149.1817 
   23700    488.15224   -146053.31            0   -144034.21   -3089.8302 
   23800    487.51359   -146050.65            0    -144034.2   -3197.2848 
   23900     487.4622   -146050.44            0   -144034.21   -2991.1629 
   24000    487.11603   -146049.01            0    -144034.2   -3114.2364 
   24100    485.51667   -146042.39            0    -144034.2   -3089.5538 
   24200    488.14055   -146053.25            0   -144034.21   -3085.4664 
   24300    487.32094   -146049.85            0    -144034.2   -3051.0925 
   24400    488.68304   -146055.51            0   -144034.22    -3179.336 
   24500    487.32422   -146049.88            0   -144034.21   -2963.3877 
   24600    487.73885   -146051.59            0   -144034.21   -3186.6557 
   24700    485.10179   -146040.66            0   -144034.19   -3028.5161 
   24800    488.74047   -146055.72            0    -144034.2   -2830.3335 
   24900    487.99503   -146052.65            0    -144034.2   -3186.3196 
   25000    486.46085    -146046.3            0   -144034.21   -3271.2144 
   25100    485.54908   -146042.52            0    -144034.2   -3073.0495 
   25200     487.9865    -146052.6            0    -144034.2   -2888.5901 
   25300     485.6961   -146043.13            0    -144034.2   -3237.2328 
   25400    488.06013   -146052.92            0   -144034.21    -3147.684 
   25500    489.76369   -146059.97            0   -144034.21   -2975.8389 
   25600    484.92862   -146039.95            0    -144034.2   -3257.1134 
   25700    486.25001   -146045.41            0   -144034.19   -3105.2819 
   25800    486.94086   -146048.29            0    -144034.2   -3167.5018 
   25900    489.31146    -146058.1            0   -144034.21     -3190.56 
   26000    487.38923   -146050.14            0    -144034.2   -3198.1361 
   26100    488.36826   -146054.18            0   -144034.19   -3071.4399 
   26200    484.57477   -146038.47            0   -144034.18   -3258.8906 
   26300    486.22119    -146045.3            0   -144034.19   -3092.8321 
   26400    488.88132   -146056.32            0   -144034.21   -3092.7264 
   26500      487.828   -146051.97            0   -144034.22   -3246.6527 
   26600    488.19154   -146053.47            0   -144034.21   -3169.1833 
   26700    486.80156    -146047.7            0    -144034.2   -3079.6027 
   26800    487.13185   -146049.08            0   -144034.21   -3247.1843 
   26900    488.41717   -146054.39            0    -144034.2   -3087.4042 
   27000    486.99674   -146048.52            0   -144034.21   -3161.0627 
   27100     487.5681   -146050.87            0    -144034.2   -3127.8859 
   27200    486.74019   -146047.44            0   -144034.19   -3097.6637 
   27300    485.77008   -146043.43            0   -144034.19   -3196.2932 
   27400    484.88323   -146039.75            0   -144034.18   -3093.4686 
   27500    487.14825   -146049.14            0    -144034.2   -3223.5505 
   27600     489.9668    -146060.8            0    -144034.2   -3084.6249 
   27700    485.78412    -146043.5            0    -144034.2   -3298.0086 
   27800    491.13376   -146065.64            0   -144034.21   -3102.7645 
   27900    487.78359   -146051.77            0   -144034.21   -3318.6656 
   28000    490.32893   -146062.31            0   -144034.21   -2980.5405 
   28100    487.92115   -146052.34            0    -144034.2   -3229.5458 
   28200    487.07646   -146048.84            0    -144034.2   -3144.7102 
   28300    489.08966   -146057.18            0   -144034.21   -3080.5075 
   28400    489.54752   -146059.09            0   -144034.22   -3173.3281 
   28500    489.28071   -146057.98            0   -144034.22   -3012.4492 
   28600    486.37534   -146045.94            0    -144034.2   -3132.2036 
   28700    487.16372    -146049.2            0   -144034.19   -2965.3442 
   28800    486.74875   -146047.48            0   -144034.19   -3240.3581 
   28900    489.61652   -146059.35            0    -144034.2   -3074.1863 
   29000    486.37994   -146045.96            0    -144034.2   -3275.6586 
   29100    488.92394    -146056.5            0   -144034.21   -3194.1713 
   29200    490.00039   -146060.95            0   -144034.21   -3023.8288 
   29300    488.11765   -146053.16            0   -144034.21   -3331.1188 
   29400    486.29553    -146045.6            0   -144034.19   -3176.5704 
   29500    487.92766   -146052.36            0   -144034.19   -3039.7007 
   29600    486.78986   -146047.66            0    -144034.2   -2974.6932 
   29700    487.45837   -146050.42            0    -144034.2   -3065.2263 
   29800    486.86116   -146047.96            0    -144034.2   -3187.0744 
   29900    489.43005    -146058.6            0   -144034.22   -3063.4848 
   30000    488.43274   -146054.47            0   -144034.22   -3115.1108 
   30100    485.56056   -146042.56            0   -144034.19   -2975.1004 
   30200    486.42114   -146046.13            0    -144034.2   -3019.0747 
   30300    488.74949   -146055.78            0   -144034.22   -3002.2278 
   30400    487.92633   -146052.36            0    -144034.2   -2753.1074 
   30500    481.72679    -146026.7            0   -144034.18   -3033.9934 
   30600    486.27193   -146045.51            0   -144034.19   -2906.3602 
   30700      483.809   -146035.31            0   -144034.18   -2960.9784 
   30800    487.48638   -146050.54            0    -144034.2    -3032.997 
   30900    489.17205   -146057.52            0    -144034.2   -2914.0559 
   31000    487.35136   -146049.99            0   -144034.21    -3036.734 
   31100    485.81399   -146043.63            0   -144034.21   -2837.8777 
   31200    485.78264   -146043.49            0    -144034.2   -2974.1371 
   31300    489.67631   -146059.62            0   -144034.23   -2964.8449 
   31400    488.41829   -146054.41            0   -144034.21   -2988.8125 
   31500    489.52951   -146059.01            0   -144034.22   -3059.1848 
   31600     486.5721   -146046.76            0    -144034.2   -3095.8569 
   31700    487.05119   -146048.74            0   -144034.21   -2998.3325 
   31800     487.5277   -146050.71            0    -144034.2   -2900.3125 
   31900    489.32356   -146058.16            0   -144034.22   -3092.4179 
   32000     488.3898   -146054.29            0   -144034.21   -3083.7813 
   32100    486.01103   -146044.43            0    -144034.2   -2865.7874 
   32200    485.28769   -146041.44            0    -144034.2   -2992.7743 
   32300     487.7864   -146051.79            0   -144034.21   -2912.6151 
   32400    485.99425   -146044.37            0    -144034.2   -2923.2674 
   32500    488.59236   -146055.13            0   -144034.21   -2981.3645 
   32600    485.78594   -146043.51            0   -144034.21   -2982.6235 
   32700    487.46743   -146050.47            0   -144034.21    -2866.526 
   32800    487.85826   -146052.08            0    -144034.2   -2895.4319 
   32900    485.12837   -146040.79            0    -144034.2    -2850.123 
   33000    486.74436   -146047.48            0   -144034.21   -2990.3425 
   33100    487.65235   -146051.23            0   -144034.21   -2882.8374 
   33200    486.28493   -146045.57            0    -144034.2    -3013.977 
   33300    488.30315   -146053.92            0    -144034.2   -2867.0837 
   33400    486.80852   -146047.74            0    -144034.2   -3117.5883 
   33500    488.07428   -146052.99            0   -144034.22   -3089.3541 
   33600    488.96075   -146056.66            0   -144034.22   -3041.1311 
   33700    486.10647   -146044.85            0   -144034.22   -3168.7555 
   33800    488.92402    -146056.5            0   -144034.22   -3064.9696 
   33900    487.61377   -146051.08            0   -144034.22   -3094.7938 
   34000    487.26511   -146049.62            0    -144034.2   -2865.6969 
   34100    485.18458   -146041.01            0   -144034.19   -3086.6133 
   34200    488.73014   -146055.69            0   -144034.21   -2868.0692 
   34300    485.31445   -146041.56            0    -144034.2   -3023.6658 
   34400    486.76558   -146047.57            0   -144034.21   -3253.0038 
   34500    491.64069   -146067.75            0   -144034.23   -2973.9747 
   34600    484.45111   -146037.98            0    -144034.2   -3220.5118 
   34700    490.56684   -146063.32            0   -144034.24   -3114.9541 
   34800     488.9293   -146056.53            0   -144034.22   -3095.4521 
   34900    490.05922   -146061.21            0   -144034.23   -2980.6844 
   35000    487.19023   -146049.34            0   -144034.22    -3193.073 
   35100    488.94621   -146056.59            0   -144034.22   -2934.2561 
   35200     486.7397   -146047.47            0   -144034.22   -3070.7476 
   35300    488.98857   -146056.78            0   -144034.23   -3154.3174 
   35400    486.80089   -146047.72            0   -144034.22    -3194.489 
   35500     484.7628   -146039.27            0    -144034.2   -3012.6922 
   35600    487.59069   -146050.98            0   -144034.21   -3007.7265 
   35700    489.43366   -146058.62            0   -144034.23   -3042.1277 
   35800    486.26034   -146045.47            0    -144034.2   -3070.6094 
   35900    488.97656   -146056.72            0   -144034.22   -2945.7337 
   36000    487.11111   -146049.01            0   -144034.22   -3220.0025 
   36100    484.98163   -146040.17            0   -144034.19   -2928.0065 
   36200    488.77062   -146055.87            0   -144034.21   -2998.2287 
   36300    486.33112   -146045.76            0    -144034.2   -3049.6701 
   36400    486.05229   -146044.61            0    -144034.2   -3076.5706 
   36500    487.13657   -146049.11            0   -144034.21   -3090.7209 
   36600    489.48854   -146058.84            0   -144034.22   -2905.6359 
   36700    486.90917   -146048.17            0   -144034.21   -3258.0984 
   36800    488.69163   -146055.54            0   -144034.22    -3084.415 
   36900    488.39591   -146054.31            0   -144034.21   -3059.9588 
   37000    485.55807   -146042.57            0    -144034.2   -3100.6264 
   37100    488.66731   -146055.43            0    -144034.2   -2862.9549 
   37200     482.9948   -146031.95            0   -144034.19   -3182.9597 
   37300    487.95826    -146052.5            0   -144034.21   -2983.0811 
   37400    484.33002   -146037.48            0    -144034.2   -3057.6509 
   37500     488.3389   -146054.09            0   -144034.22   -3121.1959 
   37600    489.52332   -146058.99            0   -144034.22   -2960.0208 
   37700    485.85975   -146043.82            0   -144034.21   -3156.1317 
   37800    486.99243   -146048.51            0   -144034.21   -3068.8413 
   37900    488.94015   -146056.58            0   -144034.23    -2905.759 
   38000    492.40473   -146070.92            0   -144034.24   -2993.5155 
   38100    486.08713   -146044.77            0   -144034.22   -3091.7741 
   38200    488.95048   -146056.61            0   -144034.21    -2852.625 
   38300    485.43305   -146042.05            0    -144034.2   -2793.8027 
   38400    486.66231   -146047.14            0   -144034.21   -3034.4089 
   38500    485.31217   -146041.54            0    -144034.2    -2942.063 
   38600    485.04605   -146040.44            0   -144034.19   -2718.3049 
   38700    485.00496   -146040.27            0   -144034.19   -2895.4389 
   38800     485.6191   -146042.83            0   -144034.21   -3048.3926 
   38900    487.49734   -146050.59            0    -144034.2   -2785.2834 
   39000    487.45161   -146050.42            0   -144034.22   -3071.5423 
   39100    487.75135   -146051.64            0   -144034.21   -2890.1514 
   39200    489.32947   -146058.19            0   -144034.23   -2893.3783 
   39300    487.58594   -146050.97            0   -144034.22   -3085.7912 
   39400    485.88747   -146043.94            0   -144034.21   -2875.8224 
   39500    489.87564   -146060.44            0   -144034.22   -2855.0296 
   39600    485.01309   -146040.31            0    -144034.2   -2992.4813 
   39700    487.09138   -146048.92            0   -144034.22   -2924.8358 
   39800    487.96977   -146052.55            0   -144034.22   -2898.8024 
   39900    488.31882   -146054.01            0   -144034.22   -3001.1592 
   40000    487.90026   -146052.27            0   -144034.22   -3031.2774 
   40100    487.79261   -146051.82            0   -144034.22    -2889.076 
   40200     486.2918   -146045.61            0   -144034.21   -2950.4918 
   40300    488.53978    -146054.9            0   -144034.21   -2734.1778 
   40400    485.81301   -146043.63            0   -144034.21   -3096.1017 
   40500     486.3674   -146045.93            0   -144034.22   -3045.4955 
   40600    489.50088   -146058.89            0   -144034.22   -2844.1828 
   40700    486.86485   -146047.99            0   -144034.22   -2882.8942 
   40800    489.43349   -146058.63            0   -144034.23   -3121.2075 
   40900    486.10776   -146044.85            0   -144034.22   -2973.4567 
   41000    489.51565   -146058.96            0   -144034.23   -2932.4512 
   41100    486.22518   -146045.33            0   -144034.21   -2972.3458 
   41200    484.81579   -146039.49            0    -144034.2   -2876.0927 
   41300    482.91159    -146031.6            0   -144034.19   -3001.6326 
   41400    484.56278   -146038.44            0   -144034.19   -2740.8304 
   41500    486.30429   -146045.66            0   -144034.21   -2916.6775 
   41600    485.17066   -146040.97            0   -144034.21   -3008.9701 
   41700    488.79922   -146055.99            0   -144034.22   -2749.0312 
   41800    485.67621   -146043.06            0   -144034.21   -3050.9625 
   41900    484.56847   -146038.47            0    -144034.2   -3009.1054 
   42000    489.84405   -146060.31            0   -144034.22   -2782.7264 
   42100    485.65383   -146042.97            0   -144034.21    -3105.209 
   42200    490.17468   -146061.69            0   -144034.23    -2814.376 
   42300    486.73408   -146047.45            0   -144034.22   -3105.4192 
   42400    483.86835   -146035.57            0   -144034.19   -2772.4889 
   42500    485.15035   -146040.87            0    -144034.2   -2866.3778 
   42600    486.57669   -146046.78            0    -144034.2   -2837.8406 
   42700    485.96369   -146044.26            0   -144034.22   -3025.9518 
   42800    486.35292   -146045.87            0   -144034.21   -3045.5744 
   42900      487.255   -146049.59            0   -144034.21   -2824.0064 
   43000    491.31694   -146066.43            0   -144034.24   -2968.8822 
   43100    486.00434   -146044.42            0   -144034.21   -3058.9233 
   43200    486.86748      -146048            0   -144034.22   -3004.7464 
   43300    488.07735      -146053            0   -144034.22   -2940.3254 
   43400    488.56658   -146055.04            0   -144034.23   -2967.8257 
   43500    486.18155   -146045.16            0   -144034.21   -2974.0056 
   43600    491.33694    -146066.5            0   -144034.23   -2800.5979 
   43700    486.60361   -146046.92            0   -144034.23   -3003.2052 
   43800     486.4253   -146046.17            0   -144034.22    -3032.057 
   43900    488.99865   -146056.82            0   -144034.22   -2855.0206 
   44000    486.62854   -146046.99            0    -144034.2        -3014 
   44100    485.17317   -146040.97            0    -144034.2   -3007.4135 
   44200    486.27632   -146045.55            0   -144034.21   -2942.7996 
   44300    487.02458   -146048.64            0   -144034.21   -3026.6567 
   44400    485.29237   -146041.47            0    -144034.2   -3023.5408 
   44500    488.11101   -146053.14            0   -144034.22   -3137.7719 
   44600    484.37048   -146037.65            0   -144034.19   -3039.8792 
   44700    489.52681      -146059            0   -144034.22   -2947.8866 
   44800    488.01025   -146052.73            0   -144034.22   -3147.6803 
   44900    485.20107   -146041.08            0   -144034.19   -2966.4822 
   45000    487.04253   -146048.72            0   -144034.21   -2868.1354 
   45100    487.47465   -146050.51            0   -144034.22   -3092.8663 
   45200    486.50131   -146046.47            0   -144034.21   -3061.5135 
   45300    484.81499    -146039.5            0   -144034.21    -3053.419 
   45400    488.20461   -146053.53            0   -144034.22   -2948.6631 
   45500    487.76258    -146051.7            0   -144034.22   -2966.4772 
   45600    487.03262   -146048.68            0   -144034.22   -3152.6754 
   45700    488.51549   -146054.82            0   -144034.22   -3040.9809 
   45800    485.02129   -146040.35            0   -144034.21    -3199.505 
   45900    490.93861   -146064.85            0   -144034.23   -2994.4469 
   46000    486.05739   -146044.65            0   -144034.22   -3129.2685 
   46100    488.59103   -146055.13            0   -144034.23   -2949.4506 
   46200    489.35718   -146058.31            0   -144034.23   -3046.8344 
   46300    486.76989   -146047.59            0   -144034.21   -2982.4559 
   46400    487.52625   -146050.72            0   -144034.22   -3112.2415 
   46500    486.93202   -146048.25            0   -144034.21   -3037.8114 
   46600    486.18986   -146045.18            0   -144034.21   -3008.0407 
   46700    487.77384   -146051.75            0   -144034.22   -2933.5897 
   46800    484.99478   -146040.24            0    -144034.2   -3037.6402 
   46900    486.54717   -146046.66            0   -144034.21   -2906.3015 
   47000    487.37023   -146050.07            0   -144034.21   -2964.4335 
   47100    488.11418   -146053.17            0   -144034.23   -3081.2231 
   47200    489.57178   -146059.19            0   -144034.22   -2968.5375 
   47300    486.67414   -146047.19            0   -144034.21   -3129.5828 
   47400     488.9261   -146056.52            0   -144034.23   -3079.3551 
   47500    487.12753   -146049.07            0   -144034.22   -3111.5347 
   47600    489.96254   -146060.81            0   -144034.23   -2978.7405 
   47700    485.35499   -146041.73            0    -144034.2   -2944.5292 
   47800    486.49708   -146046.46            0   -144034.21   -3068.4062 
   47900    487.95539   -146052.49            0   -144034.21   -2913.7022 
   48000    486.36237    -146045.9            0   -144034.21   -2984.1969 
   48100    485.02306   -146040.35            0    -144034.2    -3047.334 
   48200    488.73776   -146055.74            0   -144034.22   -3012.8234 
   48300    485.78892   -146043.52            0   -144034.21   -3075.1437 
   48400    487.88188   -146052.21            0   -144034.23   -3331.5498 
   48500    490.71492   -146063.92            0   -144034.22   -3017.7051 
   48600     487.1264   -146049.06            0   -144034.21    -2961.735 
   48700    485.38714   -146041.88            0   -144034.22   -3162.7695 
   48800    486.29623   -146045.63            0   -144034.21    -2970.204 
   48900    487.64672   -146051.22            0   -144034.22   -3109.0203 
   49000    487.82607   -146051.95            0   -144034.21   -2966.3593 
   49100    485.99501   -146044.38            0   -144034.21    -3234.123 
   49200    487.70013   -146051.43            0   -144034.21   -3088.7042 
   49300    486.47456   -146046.36            0    -144034.2   -3107.1816 
   49400    487.13039   -146049.07            0    -144034.2    -3099.872 
   49500    487.75113   -146051.64            0    -144034.2    -3029.171 
   49600    484.66062   -146038.85            0    -144034.2   -3252.6501 
   49700    485.91742   -146044.05            0    -144034.2   -3138.7438 
   49800    488.91755   -146056.47            0   -144034.21   -3136.8112 
   49900    487.69934   -146051.43            0   -144034.21   -3061.2772 
   50000     486.7409   -146047.47            0   -144034.21   -3350.5445 
   50100    487.43413   -146050.33            0    -144034.2   -3009.0643 
   50200    486.73244   -146047.43            0   -144034.21    -3328.472 
   50300    487.92981   -146052.38            0   -144034.21   -3147.0307 
   50400    488.75114   -146055.81            0   -144034.24   -3239.0883 
   50500    486.66368   -146047.14            0   -144034.21   -3341.3535 
   50600    490.69161   -146063.82            0   -144034.22   -3187.1942 
   50700    485.84963   -146043.77            0    -144034.2   -3206.5921 
   50800    487.71991   -146051.52            0   -144034.22   -3344.1972 
   50900    489.80132   -146060.13            0   -144034.21   -3164.3031 
   51000    485.71751   -146043.21            0   -144034.19    -3153.536 
   51100    486.12936   -146044.93            0   -144034.21   -3323.9646 
   51200    487.54783   -146050.79            0    -144034.2   -3083.7107 
   51300    488.76031   -146055.83            0   -144034.22    -3325.647 
   51400    487.28875   -146049.72            0    -144034.2   -3165.8896 
   51500    486.37513   -146045.94            0    -144034.2   -3261.6903 
   51600     488.9985    -146056.8            0   -144034.21   -3275.4721 
   51700    486.03801   -146044.55            0    -144034.2   -3318.8953 
   51800    487.05858   -146048.77            0    -144034.2   -3165.9042 
   51900    487.70629   -146051.45            0    -144034.2   -3174.9912 
   52000     489.3909   -146058.43            0   -144034.22   -3228.0065 
   52100    487.58706   -146050.97            0   -144034.21   -3107.0624 
   52200    483.31456   -146033.28            0   -144034.19   -3387.9375 
   52300    488.53977    -146054.9            0   -144034.21   -2902.9454 
   52400    489.69465    -146059.7            0   -144034.22   -3256.0391 
   52500    486.45939   -146046.31            0   -144034.22   -3371.2091 
   52600    489.88454   -146060.48            0   -144034.22   -2886.3154 
   52700    489.31969   -146058.15            0   -144034.22     -3288.71 
   52800    486.97546   -146048.43            0   -144034.21   -3234.7842 
   52900    487.30247   -146049.78            0    -144034.2   -3206.2591 
   53000    488.20666   -146053.53            0   -144034.22   -3223.8714 
   53100    490.96998   -146064.97            0   -144034.23   -3050.3217 
   53200    484.97346   -146040.15            0    -144034.2   -3284.4596 
   53300    485.93226    -146044.1            0   -144034.19   -3094.0821 
   53400    486.01461   -146044.45            0    -144034.2   -3168.3205 
   53500    488.58655   -146055.11            0   -144034.23   -3160.4298 
   53600    485.61005   -146042.79            0   -144034.21   -3191.2545 
   53700    487.84297   -146052.02            0   -144034.21    -3094.202 
   53800    487.80905   -146051.89            0   -144034.21   -3207.0748 
   53900    487.01306   -146048.59            0   -144034.21   -3028.5139 
   54000    488.65237   -146055.38            0   -144034.22   -3070.5856 
   54100    487.14749   -146049.15            0   -144034.21   -3131.2544 
   54200    486.15613   -146045.05            0   -144034.21   -3064.1073 
   54300    487.41964   -146050.28            0   -144034.22   -3057.1343 
   54400    486.87889   -146048.04            0   -144034.21   -3079.9926 
   54500    489.39634   -146058.46            0   -144034.22     -2913.32 
   54600    486.91969   -146048.22            0   -144034.22   -3265.2951 
   54700    489.64889    -146059.5            0   -144034.22   -2960.3165 
   54800    485.31385   -146041.54            0   -144034.19   -3014.9998 
   54900    486.41017   -146046.09            0    -144034.2   -2937.8433 
   55000    488.20737   -146053.54            0   -144034.22    -3127.481 
   55100    486.45697   -146046.28            0    -144034.2   -2999.9126 
   55200    486.36711   -146045.91            0    -144034.2   -3161.4485 
   55300    487.92101   -146052.34            0    -144034.2   -3056.8556 
   55400    486.25174   -146045.44            0   -144034.21   -3165.5383 
   55500    486.90278   -146048.13            0   -144034.21   -3108.8716 
   55600    487.58001   -146050.94            0   -144034.22    -3199.225 
   55700    487.95233   -146052.47            0   -144034.21   -3055.2877 
   55800    487.89603   -146052.25            0   -144034.22   -3215.1579 
   55900    487.06676   -146048.81            0    -144034.2   -3083.3043 
   56000    486.26388   -146045.49            0    -144034.2   -3295.0597 
   56100    488.47352   -146054.63            0   -144034.21   -3035.1949 
   56200    486.17698   -146045.12            0    -144034.2   -3168.7248 
   56300    486.56183   -146046.72            0    -144034.2   -3238.9724 
   56400    487.23682   -146049.51            0    -144034.2   -3193.7369 
   56500    486.81762   -146047.77            0    -144034.2   -3057.1078 
   56600    486.29394   -146045.61            0   -144034.21   -3313.2512 
   56700    488.80957   -146056.02            0   -144034.21   -3126.2626 
   56800    486.78667   -146047.64            0    -144034.2   -3181.2186 
   56900    488.23601   -146053.65            0   -144034.21   -3147.1321 
   57000    486.63926   -146047.05            0   -144034.21   -3251.7494 
   57100    491.10383   -146065.52            0   -144034.22   -3042.5284 
   57200     484.8983   -146039.84            0   -144034.21   -3298.7128 
   57300    485.59313   -146042.71            0    -144034.2   -3183.5399 
   57400    488.90185   -146056.38            0   -144034.19   -2891.6862 
   57500    482.08198   -146028.17            0   -144034.19   -3324.1984 
   57600    487.94331   -146052.43            0    -144034.2   -2980.0251 
   57700    485.38637   -146041.85            0    -144034.2   -3227.9949 
   57800    489.02706   -146056.93            0   -144034.22   -3135.1602 
   57900      489.105   -146057.26            0   -144034.23   -3124.9986 
   58000    488.10451   -146053.12            0   -144034.22   -3192.8557 
   58100    489.66796   -146059.59            0   -144034.23   -3157.2062 
   58200    488.79703   -146055.97            0   -144034.21   -3001.5231 
   58300    488.93181   -146056.54            0   -144034.22   -2989.2637 
   58400    487.50071   -146050.62            0   -144034.22   -3011.1918 
   58500     486.9323   -146048.25            0   -144034.21   -3129.9744 
   58600    486.47251   -146046.36            0   -144034.21   -3000.7317 
   58700    488.27198   -146053.81            0   -144034.22   -2964.6989 
   58800    486.52716   -146046.58            0   -144034.21   -3099.5824 
   58900    489.72986   -146059.84            0   -144034.22   -3053.8743 
   59000     487.3763    -146050.1            0   -144034.21   -3143.2851 
   59100    487.36492   -146050.04            0   -144034.21   -2954.6885 
   59200    486.59361   -146046.85            0   -144034.21   -3101.9156 
   59300    485.23756   -146041.22            0   -144034.18   -3009.7756 
   59400    483.25808   -146033.03            0   -144034.18   -3071.3263 
   59500    485.04468   -146040.43            0   -144034.19   -3050.9193 
   59600    488.81455   -146056.04            0    -144034.2   -2948.5627 
   59700    486.50203   -146046.47            0    -144034.2   -3198.8118 
   59800    485.80596   -146043.59            0    -144034.2   -3078.7924 
   59900      486.486    -146046.4            0    -144034.2   -3094.9633 
   60000    486.41544   -146046.12            0   -144034.21   -3161.9352 
   60100     488.8894   -146056.36            0   -144034.22    -3108.019 
   60200     488.9831   -146056.76            0   -144034.23   -3135.9877 
   60300    489.51867   -146058.97            0   -144034.23   -3141.8356 
   60400    487.33156   -146049.91            0   -144034.21   -3226.2034 
   60500    488.42794   -146054.44            0   -144034.21     -2963.03 
   60600    486.76916   -146047.58            0   -144034.21   -3209.8211 
   60700     489.2263   -146057.75            0   -144034.21   -2943.6215 
   60800     487.5978   -146051.03            0   -144034.23   -3116.5014 
   60900    487.57708   -146050.92            0   -144034.21   -2919.1486 
   61000    487.37517   -146050.08            0    -144034.2   -3086.5043 
   61100     485.1133   -146040.72            0    -144034.2   -3001.0315 
   61200    487.07129   -146048.82            0    -144034.2   -3117.3051 
   61300     488.8181   -146056.07            0   -144034.22   -3129.4756 
   61400    486.83629   -146047.86            0   -144034.21   -3002.9902 
   61500    487.94778   -146052.45            0   -144034.21   -3091.8689 
   61600    486.64868   -146047.08            0   -144034.21   -3137.4986 
   61700    488.09353   -146053.08            0   -144034.23    -3051.087 
   61800    487.52946   -146050.72            0    -144034.2    -2946.136 
   61900    487.56514   -146050.87            0   -144034.21   -3107.6223 
   62000    485.61475   -146042.81            0   -144034.21    -3148.862 
   62100    487.69844   -146051.42            0    -144034.2   -2869.4962 
   62200    486.59617   -146046.86            0    -144034.2    -3070.966 
   62300    486.72976   -146047.42            0   -144034.21   -3089.3188 
   62400    486.48876   -146046.42            0    -144034.2   -2823.5532 
   62500     487.5223   -146050.71            0   -144034.22   -3100.3511 
   62600    486.98809   -146048.49            0   -144034.21   -3035.0388 
   62700    487.90555   -146052.28            0    -144034.2   -2856.2321 
   62800    485.83704   -146043.72            0   -144034.21   -2974.9698 
   62900    488.50582   -146054.77            0   -144034.22   -2989.1565 
   63000    486.84937   -146047.91            0   -144034.21   -3090.7998 
   63100    488.84566   -146056.16            0    -144034.2   -2834.3631 
   63200    485.98359   -146044.33            0   -144034.21    -3244.964 
   63300    490.36687   -146062.47            0   -144034.21    -2991.375 
   63400    486.97123   -146048.41            0    -144034.2   -3034.7786 
   63500      487.272   -146049.68            0   -144034.22   -3151.1101 
   63600    489.81718    -146060.2            0   -144034.22   -2881.4418 
   63700    487.62104   -146051.11            0   -144034.22   -3147.3152 
   63800    486.01802   -146044.46            0   -144034.19   -3013.0275 
   63900    485.67326   -146043.04            0    -144034.2    -3014.287 
   64000    488.32685   -146054.03            0   -144034.21   -3010.0711 
   64100    484.84761   -146039.62            0    -144034.2   -3166.4202 
   64200    488.36384   -146054.18            0   -144034.21   -2941.2857 
   64300    485.45625   -146042.14            0    -144034.2   -2974.0505 
   64400    488.52576   -146054.86            0   -144034.22   -3124.1161 
   64500    489.74635    -146059.9            0   -144034.22   -2911.8156 
   64600    486.12104    -146044.9            0   -144034.21   -3071.7102 
   64700    488.53897   -146054.91            0   -144034.22   -3033.2708 
   64800    486.75117   -146047.51            0   -144034.21   -3180.7729 
   64900    487.19669   -146049.34            0    -144034.2   -2960.9882 
   65000    483.91089   -146035.75            0    -144034.2   -3145.2846 
   65100    490.12825   -146061.48            0   -144034.22   -3095.4081 
   65200    489.85094   -146060.34            0   -144034.22   -3005.9033 
   65300    488.82027   -146056.08            0   -144034.22   -3014.2593 
   65400    486.22169    -146045.3            0   -144034.19   -3112.8535 
   65500    486.34611   -146045.83            0    -144034.2   -3107.7353 
   65600    488.93078   -146056.53            0   -144034.21   -3073.0579 
   65700    487.84302   -146052.04            0   -144034.23   -3078.7219 
   65800    486.84561   -146047.89            0    -144034.2   -2968.4654 
   65900    489.43178   -146058.61            0   -144034.23    -3061.516 
   66000    487.75308   -146051.65            0   -144034.21   -3091.2741 
   66100    487.46519   -146050.46            0   -144034.21   -3024.3776 
   66200    487.41686   -146050.25            0    -144034.2   -3005.9861 
   66300    487.40321    -146050.2            0   -144034.21   -3104.9125 
   66400    485.38331   -146041.83            0   -144034.19   -3082.3164 
   66500    485.79406   -146043.54            0    -144034.2   -2939.8126 
   66600    485.73699    -146043.3            0   -144034.19   -2865.8955 
   66700    485.17922   -146040.99            0   -144034.19   -3098.9888 
   66800    485.08604    -146040.6            0   -144034.19   -3070.3214 
   66900    487.88838    -146052.2            0    -144034.2   -2878.1156 
   67000    487.17544   -146049.27            0   -144034.22   -3060.3014 
   67100    485.38876   -146041.87            0    -144034.2   -2993.6004 
   67200     490.4314   -146062.75            0   -144034.23    -3030.513 
   67300    490.16864   -146061.67            0   -144034.24   -3041.6566 
   67400    488.50879   -146054.79            0   -144034.22   -3023.6408 
   67500    488.24556    -146053.7            0   -144034.22   -3083.1202 
   67600    486.32868   -146045.75            0    -144034.2   -2845.6135 
   67700    486.87277   -146048.01            0   -144034.21   -3104.0474 
   67800    487.16755   -146049.23            0   -144034.21    -3034.226 
   67900    488.74408   -146055.77            0   -144034.23   -3235.8002 
   68000    488.05876   -146052.91            0   -144034.21   -2859.2979 
   68100    488.19233   -146053.47            0   -144034.22   -3137.8315 
   68200    486.75275   -146047.52            0   -144034.22   -3121.0828 
   68300    487.98626   -146052.63            0   -144034.22   -3095.4204 
   68400    487.84899   -146052.05            0   -144034.21   -2932.6879 
   68500    486.55107   -146046.69            0   -144034.22   -3050.5953 
   68600     487.1415   -146049.12            0   -144034.21   -3016.5031 
   68700    487.82763   -146051.97            0   -144034.22    -2919.203 
   68800    489.99911   -146060.96            0   -144034.23   -3027.8198 
   68900    486.99812   -146048.53            0   -144034.21   -2957.6314 
   69000    486.43236   -146046.19            0   -144034.21    -3017.732 
   69100    485.09057   -146040.63            0    -144034.2   -3037.2393 
   69200    489.77084   -146060.01            0   -144034.22    -2905.695 
   69300    485.26733   -146041.35            0   -144034.19   -2927.2113 
   69400    488.28952   -146053.89            0   -144034.23   -3025.2793 
   69500    487.52434   -146050.72            0   -144034.22   -3058.8982 
   69600    488.03758   -146052.85            0   -144034.23   -3059.2466 
   69700    489.84657   -146060.34            0   -144034.24    -2997.533 
   69800    487.31301   -146049.85            0   -144034.22   -2985.9118 
   69900    485.63514   -146042.88            0    -144034.2   -3006.9466 
   70000    487.13257   -146049.09            0   -144034.21   -2921.2035 
   70100    485.72715   -146043.27            0   -144034.21   -2927.3117 
   70200    489.50531   -146058.92            0   -144034.23   -2944.3761 
   70300    487.08517    -146048.9            0   -144034.22   -2993.0207 
   70400    487.82036   -146051.94            0   -144034.22   -2962.5212 
   70500    488.93553   -146056.56            0   -144034.22   -2887.5698 
   70600    488.23663   -146053.67            0   -144034.23   -3008.0317 
   70700    487.80526   -146051.89            0   -144034.23   -2918.9809 
   70800    488.40615   -146054.37            0   -144034.22   -3074.8224 
   70900    486.92565   -146048.23            0   -144034.21   -2710.9553 
   71000     488.0509   -146052.89            0   -144034.22   -3011.0758 
   71100    489.04669   -146057.02            0   -144034.23   -2976.9724 
   71200    487.18766   -146049.33            0   -144034.22   -3031.7466 
   71300    489.89139   -146060.51            0   -144034.22   -2775.6479 
   71400    486.22559   -146045.34            0   -144034.22   -2926.2803 
   71500    488.69286   -146055.56            0   -144034.23    -2964.756 
   71600    486.02216    -146044.5            0   -144034.21   -3021.2837 
   71700    486.66424   -146047.15            0   -144034.21   -2918.0536 
   71800    489.04874   -146057.04            0   -144034.24   -3069.8549 
   71900    487.79768   -146051.86            0   -144034.23   -3039.3937 
   72000    486.67352    -146047.2            0   -144034.22   -2882.0141 
   72100    487.61609   -146051.11            0   -144034.23   -3029.1394 
   72200     489.2928   -146058.04            0   -144034.23   -3046.6207 
   72300    489.35094   -146058.28            0   -144034.23    -2951.175 
   72400    489.03611   -146056.99            0   -144034.24   -3147.1366 
   72500    488.31322   -146053.98            0   -144034.22   -2874.7806 
   72600    484.32581   -146037.48            0   -144034.21   -3108.9936 
   72700    488.56779   -146055.03            0   -144034.22   -2905.0795 
   72800    485.69303   -146043.14            0   -144034.22   -3059.4611 
   72900    487.71527   -146051.51            0   -144034.23    -2922.112 
   73000    486.06339   -146044.66            0    -144034.2   -2996.3082 
   73100     486.8282   -146047.83            0   -144034.21   -3033.1473 
   73200    489.84389   -146060.31            0   -144034.22   -2964.5692 
   73300    488.66386   -146055.43            0   -144034.22   -3133.1676 
   73400    488.54375   -146054.94            0   -144034.22    -2856.366 
   73500    488.64842   -146055.37            0   -144034.23   -3000.2308 
   73600    488.07941   -146053.01            0   -144034.21   -2992.8008 
   73700    486.74089   -146047.47            0   -144034.21   -3007.3916 
   73800    486.22337   -146045.31            0   -144034.19   -2995.0588 
   73900    488.58492   -146055.11            0   -144034.23   -3077.6522 
   74000    489.34835   -146058.27            0   -144034.23   -2923.0767 
   74100    486.69475   -146047.29            0   -144034.23   -3135.2224 
   74200    490.59331   -146063.42            0   -144034.23   -2958.4591 
   74300    483.74263   -146035.04            0   -144034.19   -2945.0508 
   74400    485.51019   -146042.37            0    -144034.2   -2916.7651 
   74500     487.7657   -146051.72            0   -144034.22   -3099.5575 
   74600    487.01651   -146048.59            0   -144034.19   -2838.9823 
   74700    485.98399   -146044.33            0   -144034.21   -2973.3427 
   74800    482.67552   -146030.64            0    -144034.2   -3015.2846 
   74900    492.13502   -146069.81            0   -144034.24   -2959.8354 
   75000    488.02732    -146052.8            0   -144034.22   -2980.1734 
   75100    485.13054   -146040.81            0   -144034.22   -3112.5911 
   75200    487.78541    -146051.8            0   -144034.23   -2956.3038 
   75300    488.19371   -146053.49            0   -144034.22   -3030.0408 
   75400    487.53728   -146050.77            0   -144034.22   -2908.5861 
   75500    486.90022   -146048.13            0   -144034.21   -2885.8741 
   75600    485.70079   -146043.16            0   -144034.21   -2925.1436 
   75700    486.25289   -146045.45            0   -144034.21   -3023.2091 
   75800    487.99792   -146052.67            0   -144034.21   -2886.3855 
   75900    487.59838   -146051.01            0   -144034.21   -2991.1145 
   76000     486.5302   -146046.59            0    -144034.2   -2929.5064 
   76100     486.6832   -146047.23            0   -144034.22   -2937.1836 
   76200    488.53337   -146054.89            0   -144034.22   -2993.8617 
   76300    487.80442   -146051.88            0   -144034.22   -3170.5993 
   76400    488.40487   -146054.37            0   -144034.24   -2964.6116 
   76500    485.54664   -146042.51            0    -144034.2   -2859.4571 
   76600    486.09263   -146044.79            0   -144034.21   -3044.1828 
   76700    487.11418   -146049.03            0   -144034.23   -3011.5823 
   76800    486.99753   -146048.52            0    -144034.2   -2860.0631 
   76900    487.78151   -146051.79            0   -144034.23    -2978.367 
   77000    485.01322   -146040.31            0    -144034.2   -2956.0982 
   77100    488.71932   -146055.67            0   -144034.23   -2965.7946 
   77200     489.7011   -146059.73            0   -144034.23    -2897.819 
   77300    488.36029   -146054.18            0   -144034.22   -2976.8006 
   77400    485.47566   -146042.22            0    -144034.2   -2903.2351 
   77500    486.18637   -146045.18            0   -144034.22   -3072.2923 
   77600    487.24738   -146049.57            0   -144034.22   -2934.8219 
   77700    487.67497   -146051.34            0   -144034.22    -3060.689 
   77800    489.07829   -146057.15            0   -144034.22    -3049.208 
   77900    487.47301   -146050.51            0   -144034.23   -2978.2134 
   78000    488.54228   -146054.93            0   -144034.23    -2918.369 
   78100    485.68026   -146043.08            0   -144034.21   -2948.2892 
   78200    485.39062   -146041.87            0    -144034.2   -3021.0659 
   78300    485.46535   -146042.19            0   -144034.21   -2987.3013 
   78400    485.62232   -146042.82            0   -144034.19   -3034.7317 
   78500    488.05198   -146052.88            0    -144034.2   -2838.5217 
   78600    486.12191    -146044.9            0   -144034.21   -3024.1119 
   78700    486.14296      -146045            0   -144034.21   -3007.6455 
   78800    488.12167   -146053.18            0   -144034.22   -2956.1771 
   78900    488.91056   -146056.46            0   -144034.23   -3017.0756 
   79000    489.04887   -146057.04            0   -144034.23   -3027.9289 
   79100    485.80298   -146043.58            0   -144034.21   -3104.6042 
   79200    485.50798   -146042.36            0   -144034.21   -3000.1308 
   79300    491.26337   -146066.19            0   -144034.22   -2785.3899 
   79400    485.20802   -146041.12            0   -144034.21   -3119.3279 
   79500    487.99499   -146052.65            0   -144034.21   -2922.7451 
   79600    484.63354   -146038.74            0    -144034.2   -3021.2454 
   79700    489.42099   -146058.57            0   -144034.23    -2935.573 
   79800    487.92355   -146052.37            0   -144034.22    -3097.598 
   79900     487.3915   -146050.16            0   -144034.21   -2927.6427 
   80000    484.51304   -146038.24            0    -144034.2   -2999.8307 
   80100    487.94701   -146052.47            0   -144034.22   -2914.0447 
   80200    488.71783   -146055.65            0   -144034.21   -3047.8867 
   80300    488.73065   -146055.71            0   -144034.22   -2945.9061 
   80400    486.73045   -146047.43            0   -144034.22   -3014.3787 
   80500    487.26501   -146049.63            0   -144034.21   -3091.0342 
   80600    486.84335   -146047.89            0   -144034.22   -3023.1891 
   80700    489.64228   -146059.49            0   -144034.23   -2961.0711 
   80800    486.47946   -146046.39            0   -144034.21   -2961.9918 
   80900       485.74   -146043.33            0   -144034.21   -2946.6263 
   81000       487.21   -146049.42            0   -144034.22    -3039.627 
   81100    488.34352    -146054.1            0   -144034.22   -2886.5931 
   81200    488.11692   -146053.18            0   -144034.23   -3005.8641 
   81300    484.73694   -146039.17            0    -144034.2   -2948.4654 
   81400    486.87888   -146048.03            0    -144034.2   -2846.7206 
   81500    487.11014      -146049            0   -144034.21   -3021.7148 
   81600    486.85841   -146047.95            0   -144034.21   -2799.7935 
   81700     486.9031   -146048.14            0   -144034.22   -2893.2068 
   81800    485.54242    -146042.5            0    -144034.2   -2984.0834 
   81900    487.30959   -146049.82            0   -144034.21   -2849.0889 
   82000    488.24678   -146053.71            0   -144034.22   -2932.7064 
   82100    486.70139    -146047.3            0   -144034.21   -2873.1634 
   82200    486.13877   -146044.97            0   -144034.21    -2939.693 
   82300    486.31339   -146045.69            0    -144034.2   -3044.6478 
   82400    490.01991   -146061.04            0   -144034.23   -2941.3746 
   82500    489.58826   -146059.26            0   -144034.23   -2908.5535 
   82600    487.81224   -146051.92            0   -144034.23   -3119.4684 
   82700    487.70601   -146051.47            0   -144034.22   -2903.5752 
   82800    487.83845   -146052.01            0   -144034.21   -2864.0573 
   82900    487.07547   -146048.85            0   -144034.21   -2871.9215 
   83000    485.27151   -146041.38            0    -144034.2   -2940.2921 
   83100    487.26641   -146049.64            0   -144034.21    -3016.999 
   83200     489.8393    -146060.3            0   -144034.22   -2807.8339 
   83300    486.26593   -146045.49            0    -144034.2    -2875.748 
   83400    487.61476   -146051.09            0   -144034.22   -3058.2636 
   83500     487.6577   -146051.27            0   -144034.22    -2923.532 
   83600     489.5729    -146059.2            0   -144034.23   -2779.3395 
   83700    486.06453   -146044.68            0   -144034.22   -2994.8258 
   83800    486.04199   -146044.57            0    -144034.2   -2824.6865 
   83900     487.1224   -146049.05            0   -144034.21   -2861.8579 
   84000    484.49604   -146038.17            0    -144034.2   -2864.5192 
   84100    483.83812   -146035.44            0   -144034.19   -2964.8703 
   84200    484.86185   -146039.68            0    -144034.2   -2951.9083 
   84300    487.97179   -146052.55            0    -144034.2   -2796.5402 
   84400    484.00849   -146036.15            0    -144034.2   -3023.4353 
   84500    488.35009   -146054.12            0   -144034.21   -2857.2579 
   84600     485.1321    -146040.8            0    -144034.2   -3028.8058 
   84700    484.75432   -146039.23            0   -144034.19   -2989.5407 
   84800    485.42721      -146042            0   -144034.18   -2721.4048 
   84900    482.96819   -146031.84            0   -144034.19   -3159.7424 
   85000    488.82645    -146056.1            0   -144034.21   -2818.6583 
   85100    487.61569   -146051.09            0   -144034.21   -3050.7434 
   85200    488.54142   -146054.92            0   -144034.22   -2946.1201 
   85300     486.8202    -146047.8            0   -144034.21   -3059.9636 
   85400    489.42245   -146058.58            0   -144034.23   -2950.4414 
   85500    488.13491   -146053.24            0   -144034.22   -3095.9951 
   85600    487.45487   -146050.42            0   -144034.21   -2891.0219 
   85700    488.01811   -146052.76            0   -144034.22   -2986.8959 
   85800     484.6336   -146038.74            0    -144034.2   -2983.6305 
   85900    484.78162   -146039.35            0    -144034.2    -3000.353 
   86000      489.811   -146060.18            0   -144034.23   -2877.3354 
   86100    486.19998   -146045.23            0   -144034.21   -2882.3484 
   86200     487.4569   -146050.44            0   -144034.22   -3020.9455 
   86300    486.59164   -146046.84            0    -144034.2   -2764.6892 
   86400    486.85032   -146047.91            0   -144034.21    -2881.263 
   86500    487.44942   -146050.39            0    -144034.2   -2846.5312 
   86600    486.19476    -146045.2            0    -144034.2   -3005.9201 
   86700    487.51736   -146050.67            0    -144034.2   -2847.4023 
   86800    486.64351   -146047.07            0   -144034.21   -2952.8858 
   86900    486.60327   -146046.89            0    -144034.2   -3061.7876 
   87000    487.41562   -146050.26            0   -144034.21   -2851.3233 
   87100    485.04219   -146040.43            0    -144034.2   -3035.1585 
   87200    488.48678   -146054.69            0   -144034.21   -2752.4793 
   87300    486.91776    -146048.2            0   -144034.21   -2897.2405 
   87400    487.59623      -146051            0   -144034.21   -2996.7067 
   87500    486.76572   -146047.56            0    -144034.2   -2859.2437 
   87600    486.99833   -146048.53            0   -144034.21   -3117.9646 
   87700    488.63466   -146055.29            0    -144034.2   -2801.4778 
   87800    487.59398   -146050.99            0   -144034.21   -2916.2264 
   87900    483.92504    -146035.8            0   -144034.19   -3020.5018 
   88000    486.10615   -146044.83            0    -144034.2   -2851.5724 
   88100     488.5962   -146055.13            0    -144034.2   -3034.7317 
   88200    487.24211   -146049.54            0   -144034.21   -3029.9863 
   88300    485.32995   -146041.61            0   -144034.19   -2850.9979 
   88400     487.8719   -146052.14            0   -144034.21   -2946.5833 
   88500    487.44994   -146050.39            0    -144034.2   -2839.5535 
   88600    488.52869   -146054.87            0   -144034.22   -3084.5005 
   88700    488.09119   -146053.06            0   -144034.22    -2969.642 
   88800    488.99703   -146056.81            0   -144034.22    -3012.167 
   88900    487.81072   -146051.89            0   -144034.21   -2983.0451 
   89000    489.24046   -146057.82            0   -144034.23   -2963.6616 
   89100    485.73755   -146043.31            0    -144034.2   -2989.9085 
   89200    484.88596   -146039.78            0   -144034.19   -2878.9208 
   89300    490.10494   -146061.39            0   -144034.22   -2832.9925 
   89400    487.28929   -146049.74            0   -144034.21   -3034.6651 
   89500    485.96365   -146044.25            0   -144034.21   -2920.8465 
   89600    487.75098   -146051.64            0   -144034.21    -2795.864 
   89700    486.66376   -146047.15            0   -144034.21      -3007.9 
   89800     486.9549   -146048.35            0   -144034.21   -3010.9819 
   89900    486.35957   -146045.88            0    -144034.2   -2886.3171 
   90000     485.8716   -146043.87            0   -144034.21   -2948.7533 
   90100    488.99607   -146056.79            0   -144034.21   -2886.7764 
   90200    483.74758   -146035.07            0    -144034.2   -3107.6549 
   90300     488.6243   -146055.27            0   -144034.22   -2878.1402 
   90400    487.35109      -146050            0   -144034.22   -3043.7894 
   90500    487.92368   -146052.36            0   -144034.21   -2781.6234 
   90600    486.78487   -146047.66            0   -144034.22   -3042.6284 
   90700    488.18798   -146053.45            0   -144034.21   -2942.4642 
   90800    486.76063   -146047.54            0    -144034.2   -2980.7481 
   90900    487.89765   -146052.24            0    -144034.2    -2745.144 
   91000    484.61547   -146038.68            0   -144034.21   -3139.8716 
   91100    489.41688   -146058.53            0   -144034.21   -2787.1607 
   91200    486.06821   -146044.68            0   -144034.21   -3083.8633 
   91300    487.35413   -146050.01            0   -144034.22   -2966.1787 
   91400     488.2532   -146053.72            0   -144034.21   -2876.3832 
   91500    485.90449      -146044            0    -144034.2   -2981.0905 
   91600    486.56454   -146046.74            0   -144034.21   -2926.8996 
   91700    488.57704   -146055.07            0   -144034.22   -2805.3504 
   91800    487.59615   -146051.01            0   -144034.21   -2924.7085 
   91900    488.25963   -146053.77            0   -144034.23   -3078.9447 
   92000     490.2626   -146062.05            0   -144034.23   -2831.1844 
   92100    486.76135   -146047.55            0   -144034.21   -2919.1474 
   92200    487.11442   -146049.01            0   -144034.21   -2814.1711 
   92300    486.72604    -146047.4            0   -144034.21   -2796.0322 
   92400    489.02096   -146056.92            0   -144034.23    -2851.411 
   92500    485.60092   -146042.74            0    -144034.2   -2752.1958 
   92600     487.5961   -146051.01            0   -144034.22   -2773.1158 
   92700    487.78062   -146051.78            0   -144034.22   -2905.7142 
   92800    486.59041   -146046.84            0    -144034.2   -2831.0153 
   92900    488.00061   -146052.68            0   -144034.22   -2856.4107 
   93000    486.04762   -146044.59            0   -144034.21    -2989.168 
   93100    489.17256   -146057.54            0   -144034.22    -2958.191 
   93200    487.44422   -146050.37            0   -144034.21   -2852.9662 
   93300    486.82477   -146047.82            0   -144034.22    -3064.491 
   93400    489.38965   -146058.43            0   -144034.22   -2889.0129 
   93500    488.95759   -146056.64            0   -144034.22   -3026.2264 
   93600    486.60471    -146046.9            0   -144034.21    -2995.315 
   93700    485.14674   -146040.87            0   -144034.21   -3073.3367 
   93800    486.10101   -146044.81            0    -144034.2   -2931.0219 
   93900    488.96999   -146056.71            0   -144034.23   -3034.1052 
   94000    487.28967   -146049.74            0   -144034.21   -3102.5453 
   94100    488.74504   -146055.76            0   -144034.21   -2934.5133 
   94200    484.25652   -146037.18            0    -144034.2   -3021.5688 
   94300    485.05871    -146040.5            0    -144034.2   -2911.2191 
   94400    485.75355   -146043.37            0    -144034.2   -2923.8365 
   94500    486.18667   -146045.16            0   -144034.19   -2941.0025 
   94600    487.71749   -146051.51            0   -144034.22   -3133.1599 
   94700    485.64736   -146042.93            0    -144034.2   -2949.3364 
   94800    488.79858   -146055.98            0   -144034.22    -3086.096 
   94900    486.35574   -146045.87            0    -144034.2   -3117.4943 
   95000    484.60021    -146038.6            0    -144034.2   -3025.8373 
   95100    486.79606   -146047.68            0    -144034.2   -3002.6593 
   95200    484.07371   -146036.42            0    -144034.2   -3043.5964 
   95300     488.1007    -146053.1            0   -144034.22   -3027.8451 
   95400    489.63789   -146059.46            0   -144034.22   -2965.9824 
   95500    483.78559   -146035.23            0    -144034.2   -3296.5369 
   95600     488.1981   -146053.48            0    -144034.2   -2758.4743 
   95700    487.55577   -146050.84            0   -144034.22   -3092.0181 
   95800    485.76557   -146043.43            0   -144034.21   -2922.7233 
   95900    484.99945   -146040.25            0    -144034.2    -3223.213 
   96000    486.66361   -146047.14            0    -144034.2   -2922.6805 
   96100    487.02998   -146048.65            0    -144034.2   -2959.6084 
   96200    488.01892   -146052.76            0   -144034.22   -3097.3634 
   96300    485.99611   -146044.38            0    -144034.2   -3298.2694 
   96400    489.48602   -146058.83            0   -144034.22   -3026.7865 
   96500    489.31631   -146058.13            0   -144034.23   -3161.1298 
   96600    489.02575   -146056.94            0   -144034.23   -3068.5023 
   96700    487.26633   -146049.64            0   -144034.22   -3111.3679 
   96800    489.31752   -146058.14            0   -144034.22     -2936.56 
   96900    489.15758   -146057.47            0   -144034.22   -3286.3469 
   97000    490.24291   -146061.98            0   -144034.24   -3106.9783 
   97100    488.26918    -146053.8            0   -144034.22   -3041.6666 
   97200       488.36   -146054.17            0   -144034.22   -3090.5583 
   97300    487.11765   -146049.03            0   -144034.22   -3056.4033 
   97400    487.15026   -146049.17            0   -144034.22   -3315.3283 
   97500    488.93708   -146056.55            0   -144034.21   -2930.1254 
   97600    486.38669   -146046.01            0   -144034.22   -3133.4771 
   97700    486.45316   -146046.28            0   -144034.21    -3089.503 
   97800    485.60602   -146042.77            0   -144034.21   -3068.0718 
   97900     487.8201   -146051.93            0   -144034.21    -3112.377 
   98000    485.35818   -146041.74            0    -144034.2   -2952.2887 
   98100    488.25068   -146053.72            0   -144034.22   -3135.2112 
   98200    489.48815   -146058.84            0   -144034.22    -3080.525 
   98300     489.1016   -146057.25            0   -144034.23   -3040.8676 
   98400    485.36812   -146041.78            0    -144034.2   -3106.2224 
   98500      486.822    -146047.8            0   -144034.21   -2932.8855 
   98600    484.47536   -146038.08            0   -144034.19   -2865.8612 
   98700    487.16881   -146049.24            0   -144034.21   -2985.4994 
   98800    484.69254   -146038.97            0   -144034.19   -3020.8593 
   98900    485.54996   -146042.53            0    -144034.2   -2887.8537 
   99000    484.56276   -146038.45            0    -144034.2   -2993.8277 
   99100    489.63441   -146059.45            0   -144034.22    -2841.756 
   99200    484.30147   -146037.37            0    -144034.2     -3064.25 
   99300    489.03092   -146056.95            0   -144034.22   -3033.7471 
   99400    487.00275   -146048.56            0   -144034.22   -2965.0968 
   99500    489.21135   -146057.69            0   -144034.22   -2947.8877 
   99600    487.74097   -146051.61            0   -144034.22   -2998.3013 
   99700    485.58416   -146042.68            0   -144034.21   -2987.2179 
   99800    486.24772   -146045.43            0   -144034.21   -2967.6567 
   99900    488.45965   -146054.59            0   -144034.23   -2910.2243 
  100000    486.12508   -146044.92            0   -144034.21   -3041.4066 
  100100    485.91205   -146044.03            0    -144034.2   -3042.2032 
  100200    484.62105   -146038.69            0    -144034.2    -2884.682 
  100300    487.49464   -146050.58            0   -144034.21   -2983.6941 
  100400    487.78759   -146051.81            0   -144034.22   -2937.1153 
  100500    487.75754   -146051.68            0   -144034.22   -3042.1407 
  100600    488.21611   -146053.58            0   -144034.22   -3014.6798 
  100700    487.93169   -146052.41            0   -144034.23   -3153.0843 
  100800    486.28597   -146045.59            0   -144034.21   -3108.5712 
  100900    487.62091    -146051.1            0   -144034.21   -2907.7157 
  101000    484.85468   -146039.66            0    -144034.2   -3122.7124 
  101100    488.54834   -146054.95            0   -144034.21   -3092.0712 
  101200     487.6393   -146051.19            0   -144034.22   -3096.8182 
  101300    486.82775   -146047.82            0   -144034.21   -3104.4628 
  101400    489.86671    -146060.4            0   -144034.22   -2878.1038 
  101500     485.8792    -146043.9            0   -144034.21   -2969.6051 
  101600    487.00486   -146048.56            0   -144034.22   -3108.9951 
  101700    488.31964   -146054.01            0   -144034.23     -3060.65 
  101800    488.85221   -146056.21            0   -144034.22   -3007.2811 
  101900    487.15178   -146049.17            0   -144034.22   -3048.2235 
  102000    488.92302   -146056.52            0   -144034.24   -3158.7743 
  102100    490.24022   -146061.97            0   -144034.24   -2947.5864 
  102200    489.05662   -146057.07            0   -144034.23   -3027.7484 
  102300    486.80143   -146047.72            0   -144034.22    -3137.113 
  102400    486.64583   -146047.06            0    -144034.2   -2899.3075 
  102500    487.16519   -146049.22            0   -144034.21   -2885.6542 
  102600    486.83267   -146047.84            0    -144034.2   -2991.4045 
  102700    485.39336   -146041.88            0    -144034.2   -3029.9398 
  102800    486.31385    -146045.7            0   -144034.21   -3073.8309 
  102900    485.45896   -146042.16            0    -144034.2    -3002.056 
  103000     487.5975      -146051            0    -144034.2   -2808.4614 
  103100    484.49272   -146038.16            0    -144034.2   -3216.4098 
  103200     488.3411   -146054.09            0   -144034.21   -3095.6259 
  103300     488.3633   -146054.17            0   -144034.21   -2944.1687 
  103400    490.22248    -146061.9            0   -144034.24   -3246.8266 
  103500    487.78858   -146051.81            0   -144034.22   -2950.8316 
  103600    485.64716   -146042.94            0   -144034.21   -3041.3794 
  103700    490.64393   -146063.63            0   -144034.23   -2901.7903 
  103800    484.13146   -146036.66            0    -144034.2   -3031.8295 
  103900    483.33015   -146033.33            0   -144034.18    -2928.793 
  104000    486.99081    -146048.5            0   -144034.21   -2880.5858 
  104100    488.39392   -146054.31            0   -144034.22   -3050.3944 
  104200    490.48188   -146062.95            0   -144034.22   -2878.6452 
  104300    483.91412   -146035.76            0    -144034.2   -3104.6823 
  104400    485.14433   -146040.84            0   -144034.19   -2910.8061 
  104500    487.90125   -146052.26            0   -144034.21   -2923.7438 
  104600    486.57419   -146046.78            0   -144034.21   -3040.5692 
  104700    486.49459   -146046.45            0   -144034.21   -3048.1372 
  104800    486.91913   -146048.21            0   -144034.22    -3109.566 
  104900    490.27942   -146062.12            0   -144034.22   -2901.3763 
  105000    487.00604   -146048.57            0   -144034.22   -3145.0295 
  105100     486.8542   -146047.93            0   -144034.21   -3025.9428 
  105200    489.71418   -146059.77            0   -144034.22   -2870.4502 
  105300    484.63948   -146038.77            0   -144034.21    -3231.822 
[...]
  975000    488.69168   -146055.46            0   -144034.13   -3178.2165 
  975100    487.47792   -146050.43            0   -144034.12   -3110.0059 
  975200    485.17167   -146040.89            0   -144034.12   -3286.8788 
  975300    485.80636   -146043.51            0   -144034.12   -3214.8034 
  975400    488.31313   -146053.89            0   -144034.13   -3139.4574 
  975500    487.01294   -146048.52            0   -144034.14   -3231.1035 
  975600    486.13805   -146044.89            0   -144034.13   -3259.0526 
  975700    490.67972   -146063.68            0   -144034.14   -2973.8101 
  975800    483.75656   -146035.03            0   -144034.12   -3400.2677 
  975900    486.39665   -146045.95            0   -144034.12   -3010.8167 
  976000    488.02125   -146052.68            0   -144034.13   -3082.1184 
  976100    485.03912   -146040.35            0   -144034.13   -3276.6471 
  976200    489.32566   -146058.08            0   -144034.13   -2989.5331 
  976300    486.15136   -146044.96            0   -144034.14   -3260.4221 
  976400    486.45024   -146046.18            0   -144034.13   -3240.9722 
  976500    486.26038   -146045.38            0   -144034.12   -3086.0393 
  976600    486.92346   -146048.13            0   -144034.12   -3037.0254 
  976700    485.42897   -146041.96            0   -144034.13   -3396.2549 
  976800     489.6143   -146059.27            0   -144034.13    -3131.695 
  976900    487.64432   -146051.14            0   -144034.15   -3210.1991 
  977000     488.0932   -146052.98            0   -144034.13   -3036.9014 
  977100     486.5764    -146046.7            0   -144034.13   -3254.0979 
  977200    488.81784   -146055.99            0   -144034.14   -3174.0579 
  977300    488.44531   -146054.44            0   -144034.13   -3137.0068 
  977400    488.56934   -146054.95            0   -144034.13   -3146.8852 
  977500    484.53397   -146038.25            0   -144034.12   -3166.3969 
  977600     486.9222   -146048.13            0   -144034.12   -3232.7286 
  977700    487.69515   -146051.34            0   -144034.14   -3179.4964 
  977800    488.57471   -146054.99            0   -144034.15   -3235.5559 
  977900    488.88133   -146056.24            0   -144034.13   -3045.6063 
  978000    488.13185   -146053.16            0   -144034.15   -3424.0744 
  978100    488.33669   -146053.99            0   -144034.13   -3018.3117 
  978200    486.87916   -146047.96            0   -144034.14   -3174.7458 
  978300     488.6935   -146055.47            0   -144034.14   -3025.5872 
  978400    484.92638   -146039.87            0   -144034.12   -3191.4429 
  978500    485.77731   -146043.38            0   -144034.11   -2936.7331 
  978600    487.33448   -146049.85            0   -144034.14   -3176.6593 
  978700    488.53799   -146054.83            0   -144034.14    -3140.769 
  978800    488.15143   -146053.23            0   -144034.14   -3098.3372 
  978900    488.97647   -146056.64            0   -144034.14   -3180.6681 
  979000    488.67793   -146055.41            0   -144034.14   -3153.7673 
  979100    487.21643   -146049.36            0   -144034.14   -3237.1933 
  979200    487.47709   -146050.43            0   -144034.13   -3187.8906 
  979300    488.15101   -146053.22            0   -144034.14    -2957.777 
  979400     485.1804   -146040.93            0   -144034.13   -3300.8892 
  979500    489.65669   -146059.46            0   -144034.14   -2919.1756 
  979600    485.31129   -146041.47            0   -144034.13     -3312.71 
  979700    488.54854   -146054.87            0   -144034.14    -3145.774 
  979800    488.29579   -146053.83            0   -144034.14   -2989.1207 
  979900     486.0064   -146044.36            0   -144034.14   -3231.6133 
  980000    491.89205   -146068.72            0   -144034.16   -3042.8002 
  980100    487.75584   -146051.61            0   -144034.16   -3304.7065 
  980200    488.64468   -146055.28            0   -144034.15    -3218.186 
  980300    489.04131   -146056.91            0   -144034.14   -2951.8332 
  980400    484.57876   -146038.45            0   -144034.13   -3248.1702 
  980500    488.16604   -146053.29            0   -144034.14   -3018.1835 
  980600    486.01108   -146044.38            0   -144034.14   -3227.9044 
  980700    486.49196   -146046.36            0   -144034.13   -3127.5941 
  980800    486.34934   -146045.76            0   -144034.13   -3067.0316 
  980900    486.89075   -146048.01            0   -144034.13   -3120.3473 
  981000    485.89318   -146043.88            0   -144034.13   -3085.8267 
  981100    486.46743   -146046.25            0   -144034.13   -3025.1345 
  981200    489.42918   -146058.53            0   -144034.15   -3203.4263 
  981300    488.12975   -146053.15            0   -144034.15   -3153.7591 
  981400    487.84685   -146051.98            0   -144034.15    -3176.137 
  981500    489.42816   -146058.54            0   -144034.17   -3197.6823 
  981600    486.79609   -146047.62            0   -144034.14   -3146.4546 
  981700    487.50381   -146050.56            0   -144034.15   -3275.2494 
  981800    486.57665   -146046.71            0   -144034.13   -3192.6416 
  981900    488.53394   -146054.81            0   -144034.13    -3032.693 
  982000    488.91427    -146056.4            0   -144034.15   -3323.1248 
  982100    487.79383   -146051.75            0   -144034.14    -3120.649 
  982200    489.30608   -146058.02            0   -144034.16   -3191.9199 
  982300    486.47498   -146046.29            0   -144034.13   -3154.9748 
  982400    486.65141   -146047.02            0   -144034.13   -3058.4221 
  982500     487.8133   -146051.83            0   -144034.13   -3172.1871 
  982600    487.09305   -146048.84            0   -144034.13   -3111.0785 
  982700    487.85026   -146051.98            0   -144034.14    -3103.794 
  982800    486.25079   -146045.36            0   -144034.13    -3200.272 
  982900    487.02119   -146048.54            0   -144034.12   -3022.2039 
  983000    487.57352   -146050.84            0   -144034.14   -3180.8912 
  983100     486.8142    -146047.7            0   -144034.14   -3062.4759 
  983200    486.82591   -146047.75            0   -144034.14   -3108.4136 
  983300    487.81508   -146051.83            0   -144034.13   -2859.8646 
  983400    486.51615   -146046.47            0   -144034.14    -3104.898 
  983500    486.34138   -146045.73            0   -144034.13   -3021.8315 
  983600    485.76604   -146043.35            0   -144034.13   -3276.0046 
  983700    490.95115   -146064.83            0   -144034.16   -3080.8658 
  983800    488.14807   -146053.22            0   -144034.14   -3049.6908 
  983900    488.33356   -146053.99            0   -144034.15   -3044.1034 
  984000    488.96405   -146056.59            0   -144034.14    -2922.274 
  984100    484.73213   -146039.08            0   -144034.13   -3160.3825 
  984200    486.05942   -146044.57            0   -144034.13    -2962.072 
  984300    484.26691   -146037.14            0   -144034.12   -3071.2927 
  984400    488.16582   -146053.29            0   -144034.14   -2974.4214 
  984500    488.09621      -146053            0   -144034.14   -2972.7968 
  984600    485.85452   -146043.73            0   -144034.14   -3138.5692 
  984700    488.65404   -146055.29            0   -144034.12   -2854.4062 
  984800    485.62222   -146042.76            0   -144034.13   -3332.9886 
  984900    486.63646   -146046.95            0   -144034.13   -2983.8038 
  985000    488.48164   -146054.61            0   -144034.15   -3164.8724 
  985100    489.35817   -146058.22            0   -144034.14   -3112.3067 
  985200    488.92475   -146056.44            0   -144034.15   -3106.0565 
  985300    489.74997   -146059.85            0   -144034.15   -3127.4094 
  985400    486.35302   -146045.78            0   -144034.13   -3116.6884 
  985500    488.82367   -146056.01            0   -144034.14   -3103.2948 
  985600    487.02695   -146048.57            0   -144034.13   -3119.9088 
  985700    487.01665   -146048.53            0   -144034.13   -3141.5196 
  985800    486.52141   -146046.48            0   -144034.13   -3052.1848 
  985900    488.49807   -146054.67            0   -144034.14   -3144.7397 
  986000    487.47232   -146050.41            0   -144034.13   -2989.4368 
  986100    484.86852   -146039.64            0   -144034.13   -3106.4573 
  986200    488.50208   -146054.68            0   -144034.14   -3029.0941 
  986300    488.00171   -146052.61            0   -144034.14   -3073.4052 
  986400    488.06979    -146052.9            0   -144034.15   -3123.9171 
  986500    487.97529    -146052.5            0   -144034.14   -2918.6012 
  986600     489.0895   -146057.11            0   -144034.14   -3035.6943 
  986700    485.96469   -146044.18            0   -144034.13   -3098.4289 
  986800    487.84267   -146051.95            0   -144034.14   -3118.4736 
  986900    488.85381   -146056.14            0   -144034.14   -2841.9265 
  987000    488.26597   -146053.71            0   -144034.15    -3036.945 
  987100    487.51238   -146050.57            0   -144034.13   -2901.3591 
  987200    486.75826   -146047.47            0   -144034.14   -3138.6929 
  987300    488.06819   -146052.88            0   -144034.13   -2899.0715 
  987400    487.83448   -146051.91            0   -144034.13   -3000.3417 
  987500    487.25864   -146049.54            0   -144034.14   -3113.7336 
  987600    486.71287   -146047.27            0   -144034.13   -3041.9253 
  987700    488.49635   -146054.66            0   -144034.14   -2983.5331 
  987800    489.47079   -146058.69            0   -144034.14   -3094.2251 
  987900    488.30458   -146053.86            0   -144034.14   -2993.8363 
  988000    485.96763   -146044.19            0   -144034.13   -3150.9032 
  988100    487.76035    -146051.6            0   -144034.13   -2821.5229 
  988200    487.13682   -146049.03            0   -144034.14   -3077.8423 
  988300    488.34385   -146054.02            0   -144034.14   -3080.0615 
  988400    487.96529   -146052.46            0   -144034.14   -2987.4197 
  988500    487.59601   -146050.93            0   -144034.13   -2998.3752 
  988600    485.93614   -146044.05            0   -144034.13   -2905.5585 
  988700    489.42251   -146058.48            0   -144034.14   -2929.6433 
  988800    484.60702   -146038.56            0   -144034.13   -3169.1501 
  988900    489.63441   -146059.36            0   -144034.14    -2757.767 
  989000    487.89066   -146052.17            0   -144034.16   -3107.8692 
  989100    487.11429   -146048.94            0   -144034.14   -3099.5409 
  989200    485.53447   -146042.39            0   -144034.13   -3121.7019 
  989300    488.91037   -146056.37            0   -144034.14    -2871.006 
  989400    487.48225   -146050.46            0   -144034.14   -3106.9985 
  989500     488.0364   -146052.76            0   -144034.14   -3059.8091 
  989600     487.5635   -146050.79            0   -144034.13   -2992.0746 
  989700    487.25957   -146049.52            0   -144034.12   -3038.1023 
  989800    484.58878   -146038.47            0   -144034.12   -3073.2668 
  989900    482.38749   -146029.34            0   -144034.09   -3060.3021 
  990000    489.36357   -146058.25            0   -144034.15   -2917.5934 
  990100    486.22798   -146045.26            0   -144034.12   -3050.8614 
  990200    484.67098   -146038.82            0   -144034.12   -3030.5059 
  990300    486.91956   -146048.11            0   -144034.12   -2863.2782 
  990400    487.48893   -146050.48            0   -144034.13   -3017.9908 
  990500    485.66956   -146042.94            0   -144034.11   -2988.4527 
  990600     486.8335   -146047.77            0   -144034.13   -2911.2833 
  990700    486.88238   -146047.96            0   -144034.12   -2935.3791 
  990800    485.98159   -146044.23            0   -144034.12   -2990.8153 
  990900     487.3509   -146049.91            0   -144034.13   -2985.5402 
  991000    486.23788    -146045.3            0   -144034.12   -3048.3237 
  991100    488.30938   -146053.88            0   -144034.14   -2918.2297 
  991200    485.55629   -146042.48            0   -144034.12   -2847.1235 
  991300    487.22414   -146049.38            0   -144034.13   -3031.7273 
  991400    488.20229   -146053.43            0   -144034.13   -2901.3277 
  991500    484.79317   -146039.32            0   -144034.12    -3122.658 
  991600    488.57712   -146054.98            0   -144034.13   -2935.7632 
  991700    487.12023   -146048.96            0   -144034.13   -3171.0108 
  991800    488.11201   -146053.05            0   -144034.12    -2880.138 
  991900    486.38568   -146045.91            0   -144034.12   -3053.0626 
  992000    486.77939   -146047.54            0   -144034.13   -3168.6799 
  992100    488.72511    -146055.6            0   -144034.13   -2999.0486 
  992200      488.434    -146054.4            0   -144034.14   -2924.5166 
  992300    489.08868   -146057.11            0   -144034.15   -3084.9217 
  992400    490.05464   -146061.12            0   -144034.15   -3183.9701 
  992500    490.27539   -146062.02            0   -144034.14   -2942.4716 
  992600    488.75199   -146055.72            0   -144034.15   -3207.6251 
  992700    489.53156   -146058.94            0   -144034.14   -3084.3998 
  992800     487.3926   -146050.08            0   -144034.13   -3050.1099 
  992900    486.16017   -146044.96            0   -144034.11   -2986.4029 
  993000    486.79242   -146047.58            0   -144034.11   -2947.6732 
  993100    485.62734   -146042.77            0   -144034.12   -3131.9796 
  993200    487.59208    -146050.9            0   -144034.12   -2932.7518 
  993300    488.45935   -146054.49            0   -144034.13   -2948.3902 
  993400    487.44572    -146050.3            0   -144034.13   -3040.2274 
  993500    487.16287   -146049.12            0   -144034.12   -3038.9925 
  993600     485.9916   -146044.28            0   -144034.13   -3084.8534 
  993700    491.08873   -146065.39            0   -144034.15   -3045.7922 
  993800    490.39506   -146062.51            0   -144034.14   -3056.1636 
  993900    485.65493   -146042.89            0   -144034.12   -3066.8543 
  994000    486.45759    -146046.2            0   -144034.11    -2966.028 
  994100    488.93394   -146056.45            0   -144034.13   -2879.9737 
  994200    485.86203   -146043.75            0   -144034.13   -3045.3499 
  994300    485.54625   -146042.42            0   -144034.11   -2928.1207 
  994400    484.19998   -146036.85            0   -144034.11   -2970.1438 
  994500    488.63836   -146055.23            0   -144034.13   -2953.4705 
  994600    486.43903   -146046.12            0   -144034.12   -3024.7995 
  994700    486.55019   -146046.59            0   -144034.13   -2978.2979 
  994800    488.98044   -146056.66            0   -144034.14   -2976.2159 
  994900    487.40487   -146050.13            0   -144034.13   -3059.2121 
  995000    487.86567   -146052.03            0   -144034.13   -2930.6711 
  995100    487.28405   -146049.64            0   -144034.13   -3072.4623 
  995200     487.5417    -146050.7            0   -144034.13   -2836.9366 
  995300    488.68955   -146055.46            0   -144034.14   -3073.1076 
  995400    487.57658   -146050.86            0   -144034.15   -3152.7941 
  995500    488.90006   -146056.32            0   -144034.13   -2877.1508 
  995600    488.01037   -146052.64            0   -144034.14    -2902.341 
  995700    486.95411   -146048.27            0   -144034.13   -2862.1072 
  995800    486.25697   -146045.38            0   -144034.12   -3019.7584 
  995900    487.67804   -146051.26            0   -144034.13    -2955.534 
  996000    485.13807   -146040.74            0   -144034.11   -2997.2645 
  996100     488.6141   -146055.12            0   -144034.11   -2867.1899 
  996200    486.05072   -146044.52            0   -144034.12    -2947.194 
  996300    489.75975   -146059.87            0   -144034.13   -2945.8479 
  996400    485.20366   -146041.01            0   -144034.11   -3016.0565 
  996500    486.92018   -146048.11            0   -144034.11   -2926.7225 
  996600    484.04048   -146036.19            0   -144034.11   -2952.2397 
  996700    488.70535   -146055.51            0   -144034.13   -2978.7629 
  996800    487.18872   -146049.23            0   -144034.12   -2881.6236 
  996900    485.54678   -146042.44            0   -144034.12     -3113.46 
  997000    488.19123   -146053.38            0   -144034.13   -3093.9846 
  997100    487.95409   -146052.39            0   -144034.12   -3011.9394 
  997200    486.36767   -146045.83            0   -144034.12    -2984.361 
  997300    487.36948   -146049.98            0   -144034.12   -3030.6192 
  997400    489.57022    -146059.1            0   -144034.14   -3024.1788 
  997500    487.73234   -146051.48            0   -144034.12    -3002.758 
  997600    486.13824   -146044.89            0   -144034.12   -3081.6985 
  997700    489.78655   -146059.98            0   -144034.13   -2863.2419 
  997800    488.44233   -146054.44            0   -144034.14   -3093.8613 
  997900    487.16178   -146049.12            0   -144034.13   -3008.6347 
  998000    488.00156    -146052.6            0   -144034.13   -3036.5905 
  998100    487.87954   -146052.09            0   -144034.13    -3025.247 
  998200    487.63257   -146051.07            0   -144034.12   -3002.0786 
  998300    485.84097   -146043.64            0   -144034.11   -2942.9897 
  998400     486.1159   -146044.79            0   -144034.12    -2982.062 
  998500     487.1692   -146049.16            0   -144034.13   -2972.1403 
  998600    489.80063   -146060.05            0   -144034.14   -2872.0499 
  998700    486.08059   -146044.64            0   -144034.12   -2960.0002 
  998800    485.45634   -146042.07            0   -144034.13   -2970.1399 
  998900    486.09205   -146044.69            0   -144034.12    -2861.491 
  999000    486.19584   -146045.11            0   -144034.11   -2899.1636 
  999100    484.60268   -146038.52            0   -144034.11   -2921.9727 
  999200    487.25039    -146049.5            0   -144034.13   -3053.7967 
  999300     487.2655   -146049.57            0   -144034.14   -2968.6225 
  999400    488.54934   -146054.87            0   -144034.14   -2954.7125 
  999500    489.27347   -146057.86            0   -144034.13   -2882.6691 
  999600    487.63097   -146051.08            0   -144034.14   -3066.6428 
  999700    487.55278   -146050.74            0   -144034.13   -3005.2367 
  999800    486.23621   -146045.29            0   -144034.12   -2939.9411 
  999900    488.50025   -146054.67            0   -144034.14   -2960.3136 
 1000000    486.80705   -146047.66            0   -144034.13   -3063.5479 
Loop time of 3921.67 on 1 procs for 1000000 steps with 32000 atoms

Performance: 22.031 ns/day, 1.089 hours/ns, 254.993 timesteps/s
83.3% CPU use with 1 MPI tasks x no OpenMP threads

MPI task timing breakdown:
Section |  min time  |  avg time  |  max time  |%varavg| %total
---------------------------------------------------------------
Pair    | 2893.7     | 2893.7     | 2893.7     |   0.0 | 73.79
Neigh   | 4.0293     | 4.0293     | 4.0293     |   0.0 |  0.10
Comm    | 279.7      | 279.7      | 279.7      |   0.0 |  7.13
Output  | 2.0493     | 2.0493     | 2.0493     |   0.0 |  0.05
Modify  | 475.37     | 475.37     | 475.37     |  -nan | 12.12
Other   |            | 266.8      |            |       |  6.80

Nlocal:    32000 ave 32000 max 32000 min
Histogram: 1 0 0 0 0 0 0 0 0 0
Nghost:    20821 ave 20821 max 20821 min
Histogram: 1 0 0 0 0 0 0 0 0 0
Neighs:    0 ave 0 max 0 min
Histogram: 1 0 0 0 0 0 0 0 0 0

Total # of neighbors = 0
Ave neighs/atom = 0
Neighbor list builds = 31291
Dangerous builds = 0

Please see the log.cite file for references relevant to this simulation

Total wall time: 1:05:22
